# vtk DataFile Version 2.0
Electric current density generated by TTH
ASCII
DATASET UNSTRUCTURED_GRID
POINTS 12448 double
-5.000000e-05 5.000000e-05 -2.000000e-07
1.000000e-04 1.000000e-04 -2.000000e-07
3.381509e-05 5.000000e-05 -2.000000e-07
-7.564544e-07 -9.990000e-05 -2.000000e-07
-5.383660e-05 -1.672134e-05 2.000000e-07
-5.358712e-05 -4.132082e-05 2.000000e-07
-7.618941e-05 9.085255e-05 2.000000e-07
3.187863e-05 5.995335e-05 2.000000e-07
6.344545e-05 3.648140e-05 2.000000e-07
-4.695534e-05 -5.324434e-05 2.000000e-07
5.138561e-05 3.603803e-05 2.000000e-07
-5.551914e-05 3.200166e-05 2.000000e-07
2.944628e-05 -5.127181e-05 2.000000e-07
4.553120e-05 -5.105271e-05 2.000000e-07
-7.761739e-07 -9.990000e-05 -2.000000e-07
7.873441e-05 -6.187476e-05 2.000000e-07
4.759321e-06 7.721984e-05 2.000000e-07
9.872548e-05 -9.061828e-05 2.000000e-07
-2.131196e-05 -9.857055e-05 2.000000e-07
6.815259e-05 -3.174786e-05 2.000000e-07
7.896362e-06 5.140950e-05 2.000000e-07
-4.684598e-05 5.783163e-05 2.000000e-07
9.881854e-05 -8.846582e-05 2.000000e-07
9.249012e-05 -7.167845e-05 2.000000e-07
9.184174e-05 8.754048e-05 2.000000e-07
-7.959297e-07 -9.990000e-05 -2.000000e-07
-1.268310e-05 -5.290486e-05 2.000000e-07
-5.907603e-05 -3.578708e-05 2.000000e-07
6.662950e-05 8.108965e-05 2.000000e-07
-1.457010e-05 9.802260e-05 2.000000e-07
-2.325409e-06 -5.015589e-05 2.000000e-07
4.479814e-05 5.347820e-05 2.000000e-07
-1.765886e-05 7.341517e-05 2.000000e-07
-5.144168e-05 -3.040194e-05 2.000000e-07
-5.336149e-05 5.465925e-05 2.000000e-07
-3.659687e-05 -9.829266e-05 2.000000e-07
-8.157219e-07 -9.990000e-05 -2.000000e-07
1.765172e-05 -5.311756e-05 2.000000e-07
-6.850762e-05 2.236026e-05 2.000000e-07
-7.092618e-05 1.770310e-05 2.000000e-07
5.254646e-06 -5.050386e-05 2.000000e-07
3.222902e-05 5.650800e-05 2.000000e-07
-6.606333e-05 -5.270494e-05 2.000000e-07
-6.141417e-05 1.791170e-05 2.000000e-07
9.090069e-05 2.473442e-06 2.000000e-07
6.440037e-05 -6.046166e-05 2.000000e-07
3.501496e-05 7.293064e-05 2.000000e-07
-8.355504e-07 -9.990000e-05 -2.000000e-07
-5.126327e-05 3.447677e-05 2.000000e-07
8.096394e-07 -6.506834e-05 2.000000e-07
2.088001e-06 -6.902830e-05 2.000000e-07
4.039561e-05 6.078725e-05 2.000000e-07
-5.980055e-05 7.031243e-05 2.000000e-07
-4.577935e-05 -5.112960e-05 2.000000e-07
-2.286887e-05 -5.412153e-05 2.000000e-07
-6.071601e-06 9.790659e-05 2.000000e-07
-7.217898e-05 6.040974e-05 2.000000e-07
-2.218006e-05 -5.815120e-05 2.000000e-07
-8.554154e-07 -9.990000e-05 -2.000000e-07
5.123319e-05 4.448825e-05 2.000000e-07
2.527890e-05 5.615653e-05 2.000000e-07
7.912708e-05 -9.877291e-05 2.000000e-07
-5.657605e-05 1.500543e-05 2.000000e-07
3.266359e-05 5.353551e-05 2.000000e-07
-5.426340e-05 -8.851760e-06 2.000000e-07
9.421835e-05 9.113279e-05 2.000000e-07
5.165813e-05 5.815888e-05 2.000000e-07
-9.888909e-05 -9.729501e-05 2.000000e-07
7.477796e-05 5.542315e-05 2.000000e-07
-8.753169e-07 -9.990000e-05 -2.000000e-07
-9.289846e-05 6.722537e-05 2.000000e-07
-1.635499e-06 -5.022203e-05 2.000000e-07
4.897527e-07 -5.058170e-05 2.000000e-07
5.692898e-05 -6.022862e-05 2.000000e-07
-5.279182e-05 4.275557e-05 2.000000e-07
3.573503e-05 -5.430770e-05 2.000000e-07
5.629480e-05 -3.163868e-05 2.000000e-07
-5.131122e-05 -3.979029e-05 2.000000e-07
5.741409e-07 -5.184475e-05 2.000000e-07
5.403587e-05 3.734713e-05 2.000000e-07
-8.952550e-07 -9.990000e-05 -2.000000e-07
-9.824951e-05 -4.799411e-05 2.000000e-07
-8.062192e-05 2.716820e-05 2.000000e-07
4.950415e-05 -9.831585e-05 2.000000e-07
-5.374560e-05 -9.825994e-05 2.000000e-07
9.667463e-05 2.098496e-05 2.000000e-07
6.657813e-05 1.240036e-07 2.000000e-07
-8.984179e-05 5.621754e-05 2.000000e-07
7.478908e-05 -9.840955e-05 2.000000e-07
-5.368513e-05 -2.848993e-05 2.000000e-07
-5.181715e-06 5.576645e-05 2.000000e-07
-9.152297e-07 -9.990000e-05 -2.000000e-07
-5.146794e-05 -1.717392e-06 2.000000e-07
5.916012e-05 -3.945006e-05 2.000000e-07
1.612237e-05 5.865297e-05 2.000000e-07
-7.218359e-05 -5.123479e-05 2.000000e-07
9.048438e-06 -8.122676e-05 2.000000e-07
5.703506e-05 -5.430805e-05 2.000000e-07
-7.347914e-05 -9.271673e-05 2.000000e-07
1.023499e-05 -5.230571e-05 2.000000e-07
-6.327147e-05 -9.862818e-05 2.000000e-07
9.447291e-05 -7.287093e-07 2.000000e-07
-9.352412e-07 -9.990000e-05 -2.000000e-07
3.710348e-05 5.138114e-05 2.000000e-07
-4.870364e-05 -9.749561e-05 2.000000e-07
-9.831265e-05 4.717908e-05 2.000000e-07
5.269013e-05 -4.310635e-05 2.000000e-07
5.162523e-05 3.124343e-05 2.000000e-07
-5.385630e-05 2.312545e-05 2.000000e-07
-6.081128e-06 -5.037659e-05 2.000000e-07
-6.880075e-05 1.033655e-05 2.000000e-07
-7.284886e-05 6.409234e-06 2.000000e-07
-1.554040e-05 -9.831900e-05 2.000000e-07
3.508171e-05 5.000000e-05 -2.000000e-07
-9.552895e-07 -9.990000e-05 -2.000000e-07
-6.430591e-05 -8.963117e-05 2.000000e-07
1.864583e-05 -9.866673e-05 2.000000e-07
-5.657357e-05 -3.214315e-05 2.000000e-07
7.518654e-05 9.494321e-05 2.000000e-07
7.359574e-05 9.285260e-05 2.000000e-07
-1.810904e-05 -5.110881e-05 2.000000e-07
6.010937e-05 9.822219e-05 2.000000e-07
-9.683825e-05 -9.009050e-05 2.000000e-07
5.532912e-05 1.737448e-05 2.000000e-07
-6.601859e-05 -9.848159e-05 2.000000e-07
-9.753746e-07 -9.990000e-05 -2.000000e-07
-9.969302e-07 5.154672e-05 2.000000e-07
-9.865672e-05 7.881985e-05 2.000000e-07
4.379239e-05 5.125414e-05 2.000000e-07
-2.387657e-05 -9.853016e-05 2.000000e-07
-5.388501e-05 -3.488574e-05 2.000000e-07
3.839523e-05 6.284505e-05 2.000000e-07
-9.865596e-05 8.157065e-05 2.000000e-07
-9.371778e-05 -9.882230e-05 2.000000e-07
-5.279661e-06 -5.042642e-05 2.000000e-07
5.648923e-05 7.042870e-05 2.000000e-07
-9.954967e-07 -9.990000e-05 -2.000000e-07
-1.545315e-06 -5.100181e-05 2.000000e-07
8.985233e-05 3.068811e-05 2.000000e-07
-9.794590e-05 -4.422133e-05 2.000000e-07
9.760304e-05 -6.168592e-05 2.000000e-07
6.388797e-05 7.161996e-06 2.000000e-07
2.474725e-05 7.275134e-05 2.000000e-07
3.997028e-05 -5.567981e-05 2.000000e-07
-9.865547e-05 7.607815e-05 2.000000e-07
5.464681e-05 6.260641e-07 2.000000e-07
-5.862686e-05 -4.851188e-05 2.000000e-07
-1.015656e-06 -9.990000e-05 -2.000000e-07
3.069750e-05 -5.740984e-05 2.000000e-07
-3.470674e-05 5.114709e-05 2.000000e-07
-5.045590e-05 -5.327541e-05 2.000000e-07
8.800487e-05 -6.130266e-06 2.000000e-07
8.575861e-05 -1.348360e-06 2.000000e-07
-9.265764e-05 -9.461387e-05 2.000000e-07
-8.104097e-05 -8.960518e-05 2.000000e-07
1.175547e-05 -5.106111e-05 2.000000e-07
-1.754891e-05 -5.685367e-05 2.000000e-07
-3.395336e-06 -5.560041e-05 2.000000e-07
-1.035852e-06 -9.990000e-05 -2.000000e-07
-1.282623e-05 5.438522e-05 2.000000e-07
-8.968601e-05 -9.871999e-05 2.000000e-07
5.909925e-05 3.587675e-05 2.000000e-07
5.992952e-05 2.806265e-06 2.000000e-07
9.843305e-05 8.449886e-05 2.000000e-07
9.342713e-05 9.389117e-05 2.000000e-07
-5.319422e-05 -5.622069e-06 2.000000e-07
-5.146066e-05 1.177250e-05 2.000000e-07
-1.869917e-05 -9.866318e-05 2.000000e-07
9.794071e-05 4.693262e-05 2.000000e-07
-1.056085e-06 -9.990000e-05 -2.000000e-07
4.379889e-05 -7.285294e-05 2.000000e-07
-5.735642e-05 -2.476960e-05 2.000000e-07
4.644728e-05 5.633840e-05 2.000000e-07
3.593017e-06 5.130272e-05 2.000000e-07
-2.383444e-05 -8.036792e-05 2.000000e-07
5.054916e-05 5.128074e-05 2.000000e-07
-9.195546e-05 -8.201154e-05 2.000000e-07
-9.118829e-05 -7.776645e-05 2.000000e-07
-8.982221e-05 -8.551092e-05 2.000000e-07
5.944431e-05 -9.590750e-06 2.000000e-07
-1.076356e-06 -9.990000e-05 -2.000000e-07
4.026475e-05 -9.421463e-05 2.000000e-07
-6.040126e-05 -9.845771e-05 2.000000e-07
9.579331e-06 -9.920478e-05 2.000000e-07
-3.108865e-05 -5.418524e-05 2.000000e-07
5.773208e-05 -4.146756e-05 2.000000e-07
6.936592e-05 -9.111625e-05 2.000000e-07
9.243051e-05 9.561960e-05 2.000000e-07
9.866759e-05 7.334116e-05 2.000000e-07
-1.164101e-05 -8.676744e-05 2.000000e-07
-5.401360e-05 1.674528e-05 2.000000e-07
-1.096663e-06 -9.990000e-05 -2.000000e-07
2.403702e-05 9.768722e-05 2.000000e-07
6.268616e-05 -9.232989e-05 2.000000e-07
8.242863e-06 -9.920422e-05 2.000000e-07
-9.634111e-05 7.569872e-05 2.000000e-07
6.930110e-06 6.030726e-05 2.000000e-07
9.864259e-05 8.127534e-05 2.000000e-07
-3.296412e-05 -5.375415e-05 2.000000e-07
3.388193e-05 -5.697996e-05 2.000000e-07
-7.281466e-05 4.579865e-05 2.000000e-07
-7.739394e-05 4.326308e-05 2.000000e-07
-1.117009e-06 -9.990000e-05 -2.000000e-07
5.331278e-05 4.918240e-05 2.000000e-07
3.942534e-05 -5.134553e-05 2.000000e-07
-9.189028e-05 9.550064e-05 2.000000e-07
-1.730176e-05 -5.366158e-05 2.000000e-07
9.133116e-05 -9.704205e-05 2.000000e-07
8.799709e-06 -5.635557e-05 2.000000e-07
9.845580e-05 9.162513e-05 2.000000e-07
-3.969191e-05 5.113480e-05 2.000000e-07
5.368088e-05 -4.842294e-06 2.000000e-07
9.413878e-05 7.601402e-05 2.000000e-07
-1.137391e-06 -9.990000e-05 -2.000000e-07
8.880578e-05 8.381381e-05 2.000000e-07
-8.003709e-05 -9.784277e-05 2.000000e-07
-1.636629e-05 -6.534913e-05 2.000000e-07
-8.648005e-05 -9.894532e-05 2.000000e-07
3.065176e-05 8.195265e-05 2.000000e-07
-4.880455e-05 5.670862e-05 2.000000e-07
4.843843e-05 5.266354e-05 2.000000e-07
9.841760e-05 -7.489730e-05 2.000000e-07
-9.820704e-05 4.003754e-05 2.000000e-07
4.248268e-05 5.400370e-05 2.000000e-07
3.635370e-05 5.000000e-05 -2.000000e-07
-1.157811e-06 -9.990000e-05 -2.000000e-07
-9.854412e-05 -7.983119e-05 2.000000e-07
-5.135517e-05 -1.839235e-05 2.000000e-07
5.849794e-05 3.250769e-05 2.000000e-07
4.636676e-05 -9.839427e-05 2.000000e-07
9.707038e-05 -1.490415e-05 2.000000e-07
-3.166252e-05 5.585029e-05 2.000000e-07
2.724990e-05 -6.565704e-05 2.000000e-07
9.864086e-05 7.603221e-05 2.000000e-07
-3.949105e-05 -9.834642e-05 2.000000e-07
-1.384424e-05 -5.075650e-05 2.000000e-07
-1.178269e-06 -9.990000e-05 -2.000000e-07
9.830936e-05 -4.535405e-05 2.000000e-07
2.034165e-05 9.774493e-05 2.000000e-07
5.599216e-05 3.539552e-05 2.000000e-07
-3.650074e-05 6.096221e-05 2.000000e-07
-7.770287e-05 -5.688489e-05 2.000000e-07
3.009218e-05 -9.863319e-05 2.000000e-07
-2.839875e-05 -5.641830e-05 2.000000e-07
9.792859e-05 6.581479e-06 2.000000e-07
[...]
POINT_DATA 12448
VECTORS 10.000GHz_fone_imag double
-7.088502e-03 6.870055e-03 -1.587286e-02
3.215836e-05 3.064631e-05 2.344414e-04
5.208471e-05 3.471142e-03 -6.714625e-03
5.932192e-07 -1.384254e-03 2.545533e-03
1.925488e-03 5.493872e-05 -1.167869e-04
2.241466e-03 2.721975e-04 -1.419350e-04
1.091304e-04 -2.759674e-04 4.245011e-06
-1.527726e-04 -1.123727e-03 -1.193020e-05
-9.129658e-04 -1.924733e-04 -2.782037e-06
6.593223e-04 2.518064e-03 -1.641114e-04
-3.509000e-03 -9.154271e-05 -4.469146e-04
1.623093e-03 -1.279224e-04 -4.001001e-05
-5.744998e-05 3.414086e-03 -5.032260e-04
-3.443581e-04 4.757739e-03 -9.880632e-04
6.857157e-07 -1.384242e-03 2.545254e-03
-3.435559e-04 1.973429e-04 1.681066e-06
-1.734097e-05 -6.368756e-04 1.131743e-05
-3.868275e-04 4.099287e-05 5.881291e-05
8.460184e-06 1.219175e-03 1.556651e-04
-7.482019e-04 1.381839e-04 1.045345e-05
-3.070706e-05 -2.987910e-03 -3.902733e-04
4.990007e-04 -1.265010e-03 -5.406736e-05
-4.464644e-04 3.886065e-05 6.800807e-05
-3.258210e-04 9.567206e-05 -6.454661e-07
-1.876925e-04 -1.175472e-04 -2.819500e-06
7.173571e-07 -1.384105e-03 2.544952e-03
3.658193e-05 2.164339e-03 -2.057517e-04
1.197529e-03 1.926832e-04 -8.305861e-06
-1.777831e-04 -3.035604e-04 1.740671e-06
9.098367e-06 -1.090751e-03 7.857761e-05
2.348724e-04 4.516524e-03 -5.462055e-03
-4.371244e-04 -2.433201e-03 -1.336990e-04
6.358702e-05 -6.540243e-04 -5.994651e-06
3.274289e-03 6.241897e-05 -4.311643e-04
9.615867e-04 -1.086957e-03 -2.926380e-05
3.661433e-05 1.030764e-03 7.385650e-05
6.977223e-07 -1.383841e-03 2.544658e-03
-3.025251e-05 2.123564e-03 -1.282948e-04
7.460882e-04 -6.685632e-05 6.740801e-06
6.990641e-04 -5.427512e-05 2.098566e-05
-3.951483e-06 4.322999e-03 -1.849968e-03
-1.481532e-04 -1.472502e-03 -5.029454e-05
5.913631e-04 3.478384e-04 -8.004137e-06
1.014690e-03 -5.483102e-05 -5.004109e-06
-6.231059e-04 -4.870311e-06 -6.674742e-06
-4.487931e-04 3.863448e-04 1.066297e-05
-1.381575e-04 -6.096712e-04 1.163783e-05
5.372953e-07 -1.383247e-03 2.544543e-03
3.560564e-03 -8.772863e-05 -5.378664e-04
-1.043611e-05 8.514520e-04 -1.664368e-05
-2.448814e-05 7.495436e-04 1.123909e-06
-2.698118e-04 -1.040627e-03 -1.955053e-05
2.914155e-04 -4.119094e-04 -1.297836e-06
3.807471e-04 4.766511e-03 -9.444081e-04
3.476975e-05 1.838646e-03 -9.022157e-05
5.658677e-06 -1.061178e-03 6.056943e-05
3.906714e-04 -2.678273e-04 -4.738194e-06
7.160671e-05 1.244254e-03 -1.729076e-05
9.624678e-07 -1.382694e-03 2.544592e-03
-4.293000e-03 -2.895969e-04 -7.369143e-04
-8.162655e-05 -1.480976e-03 -5.756482e-05
-2.878056e-05 5.991798e-04 9.109493e-05
1.391818e-03 -3.279826e-05 -4.185538e-05
-1.236847e-04 -2.113861e-03 -9.294064e-05
1.727752e-03 1.915392e-05 -1.077450e-04
-1.771381e-04 -1.072210e-04 8.894358e-07
-6.165060e-04 -9.461922e-04 -2.117573e-05
2.262389e-04 7.581159e-05 4.808868e-05
-4.295833e-04 -2.270884e-04 8.823925e-08
1.210807e-06 -1.382499e-03 2.544438e-03
3.685416e-04 -8.984968e-05 9.122449e-06
3.127057e-05 4.698476e-03 -4.543132e-03
2.817140e-06 4.474707e-03 -1.928376e-03
-5.243013e-04 6.079403e-04 -5.200543e-06
2.678049e-03 -3.000496e-04 -2.159943e-04
-1.633820e-04 1.915064e-03 -1.070631e-04
-1.487452e-03 1.347359e-04 -4.448531e-05
3.777974e-03 1.016937e-04 -5.277238e-04
7.205822e-06 2.784872e-03 -3.609576e-04
-2.025788e-03 -1.880724e-04 -9.080059e-05
1.365512e-06 -1.382404e-03 2.544421e-03
9.313559e-04 2.287244e-05 6.679044e-05
5.568364e-04 -7.622027e-05 8.165847e-06
-5.514241e-06 8.972128e-04 5.913983e-05
4.625399e-05 8.339465e-04 5.654631e-05
-8.291495e-04 -1.711399e-05 8.876216e-06
-7.973358e-04 -8.151857e-06 3.400669e-06
4.106630e-04 -1.043174e-04 9.321829e-06
-4.906356e-05 5.926114e-04 4.513057e-05
1.992920e-03 9.073712e-05 -1.096259e-04
1.436051e-05 -1.463668e-03 -5.104343e-05
1.600947e-06 -1.382438e-03 2.544736e-03
2.987188e-03 1.575463e-05 -3.969020e-04
-1.201396e-03 2.566284e-04 -1.864804e-05
-4.632872e-05 -1.194645e-03 -2.395625e-05
4.949123e-04 2.455368e-04 -1.209565e-05
-2.595946e-05 5.990694e-04 2.906929e-06
-8.445023e-04 7.027982e-04 -2.682360e-05
9.345755e-05 3.160887e-04 -5.435781e-06
-2.351517e-05 2.432005e-03 -2.407002e-04
1.438714e-05 8.266697e-04 1.187317e-04
-7.185541e-04 2.472074e-05 -1.684825e-05
1.938043e-06 -1.383007e-03 2.544615e-03
-1.154405e-04 -3.523154e-03 -4.451788e-04
2.498399e-05 7.643993e-04 1.022699e-05
9.306218e-04 -2.847747e-05 9.303149e-05
-2.742762e-03 3.328581e-04 -1.887833e-04
-3.139523e-03 -3.464044e-05 -3.844737e-04
1.895500e-03 -5.090469e-05 -8.371052e-05
2.610871e-06 4.749344e-03 -2.498392e-03
7.649772e-04 -3.443465e-05 -6.655133e-07
6.683425e-04 -1.662837e-05 4.199310e-06
2.140661e-05 1.167322e-03 1.094017e-04
3.217752e-05 3.377390e-03 -6.814073e-03
2.060110e-06 -1.383438e-03 2.544700e-03
1.069710e-04 3.535017e-04 3.879254e-06
-2.704113e-05 1.264919e-03 1.487650e-04
1.466673e-03 1.444566e-04 -1.643870e-05
-7.618051e-05 -3.559801e-04 1.837630e-05
-9.406195e-05 -3.185890e-04 -1.024854e-06
-1.804600e-05 3.465157e-03 -6.287750e-04
-2.309873e-05 -7.469953e-04 5.577533e-05
2.589245e-04 6.829924e-05 1.395661e-05
-1.565272e-03 -3.942167e-05 -3.787681e-05
3.544165e-05 7.413941e-04 6.966639e-05
2.234449e-06 -1.383935e-03 2.544881e-03
-6.065565e-06 -2.881873e-03 -3.142418e-04
5.750917e-04 -3.875795e-05 7.657951e-05
-2.268187e-04 -4.174059e-03 -6.057219e-04
-8.693598e-06 1.199937e-03 1.219493e-04
2.018009e-03 1.472979e-04 -7.058276e-05
-2.223022e-04 -9.299162e-04 -1.865029e-05
5.407530e-04 -3.678837e-05 7.177965e-05
4.320085e-05 3.359703e-04 5.443617e-05
-9.612355e-06 4.514816e-03 -2.190903e-03
-2.863373e-04 -4.543556e-04 6.811726e-06
2.285776e-06 -1.384152e-03 2.544737e-03
4.814962e-05 3.709552e-03 -1.025463e-03
-5.488142e-04 -5.455545e-05 2.546205e-06
8.772718e-04 3.380246e-05 4.643446e-05
-6.566853e-04 4.969042e-05 3.954526e-05
-9.044877e-04 -2.866431e-05 1.499187e-06
-9.588776e-05 -6.492195e-04 -6.255726e-06
-2.668565e-04 1.665199e-03 -6.952717e-05
6.275561e-04 -2.623407e-05 7.912708e-05
-1.646409e-03 9.148669e-06 -4.120905e-05
1.085997e-03 5.094617e-04 -2.307786e-05
2.278472e-06 -1.384230e-03 2.544686e-03
-1.314268e-04 1.351540e-03 -2.663454e-05
7.341358e-05 -3.788186e-03 -6.299038e-04
1.241152e-03 2.020009e-03 -6.558477e-05
-5.965468e-04 1.366654e-05 1.212170e-05
-5.839848e-04 1.902665e-05 -4.033114e-06
1.155244e-04 1.624658e-04 9.693225e-07
1.277312e-04 2.209838e-04 -1.164198e-06
9.119191e-06 3.450393e-03 -6.727426e-04
4.872474e-05 1.383778e-03 -1.354732e-05
2.570667e-05 1.510981e-03 -6.313118e-05
2.403287e-06 -1.384581e-03 2.544512e-03
3.318814e-05 -1.743273e-03 -9.252649e-05
2.994699e-05 4.072636e-04 6.659257e-05
-1.198894e-03 -1.970473e-04 -1.811212e-05
-1.088366e-03 -9.580003e-06 -6.680805e-06
-4.646987e-04 -3.913239e-05 4.709305e-05
-1.321273e-04 -1.435623e-04 1.405972e-06
2.043853e-03 -2.544728e-05 -1.013038e-04
3.039857e-03 -6.328542e-05 -3.877605e-04
9.067177e-06 1.270313e-03 1.687873e-04
-8.471698e-04 -3.964731e-05 3.203638e-05
2.338510e-06 -1.384933e-03 2.544350e-03
-1.994802e-04 5.704104e-04 -1.120683e-05
1.320159e-03 7.491854e-05 -4.670791e-05
-5.173167e-04 -1.494172e-03 -3.590201e-05
2.615618e-06 -3.118214e-03 -4.485516e-04
6.908276e-05 5.780083e-04 2.790010e-06
-2.626668e-03 -3.434467e-03 -5.613423e-04
2.353365e-04 1.058822e-04 3.110410e-06
2.636695e-04 1.061810e-04 2.751094e-08
1.860851e-04 1.305472e-04 3.234502e-06
-1.142604e-03 2.795972e-05 -1.005451e-05
2.080938e-06 -1.385331e-03 2.544404e-03
-5.668579e-05 6.123797e-04 -9.427809e-06
2.582643e-05 8.140858e-04 7.930328e-05
1.022732e-05 1.598252e-03 3.833729e-04
1.164894e-04 1.898862e-03 -5.840317e-05
-1.343642e-03 3.088190e-04 -2.292916e-05
-1.065304e-04 3.255050e-04 4.893571e-06
-9.882363e-05 -1.863743e-04 3.179197e-06
-6.704079e-04 -3.107489e-05 7.328987e-05
2.242151e-05 5.750865e-04 1.217161e-06
1.826010e-03 -3.866826e-05 -7.382677e-05
1.799100e-06 -1.385443e-03 2.544401e-03
-4.439770e-06 -9.552520e-04 3.382636e-05
-9.301007e-05 3.989792e-04 -2.969280e-06
-4.136252e-06 1.587759e-03 4.078321e-04
4.016505e-04 -7.158276e-05 1.873581e-05
-2.664725e-05 -1.060494e-03 -1.297092e-05
-5.419216e-04 -3.652928e-05 7.075991e-05
1.167509e-04 2.033944e-03 -1.164246e-04
-1.608721e-04 1.411503e-03 -4.887984e-05
5.468995e-04 -2.013539e-04 6.249633e-06
5.168113e-04 -1.607878e-04 -9.998424e-06
1.483085e-06 -1.385345e-03 2.544531e-03
-2.321526e-03 -1.034311e-03 -1.537026e-04
-1.037106e-04 3.591345e-03 -5.446052e-04
9.657397e-05 -1.914840e-04 7.249106e-06
2.600463e-05 1.910356e-03 -1.101690e-04
-7.272465e-05 2.503697e-04 1.107570e-05
-2.356754e-05 1.392826e-03 -3.224382e-05
-3.385982e-04 -4.882137e-05 3.480227e-05
9.694592e-05 -4.059526e-03 -7.631822e-04
-1.868495e-03 5.145689e-06 -9.410464e-05
-3.251011e-04 -8.597489e-05 1.998274e-05
1.182262e-06 -1.385284e-03 2.544519e-03
-2.008887e-04 -1.368939e-04 7.634574e-07
3.805195e-05 4.719543e-04 3.883528e-05
5.707581e-05 8.558970e-04 1.618266e-05
3.142438e-05 5.016701e-04 9.917239e-05
-8.716723e-05 -5.478908e-04 -2.304837e-06
6.389787e-04 -1.330490e-03 -2.301730e-05
-9.432550e-04 -2.877902e-03 -1.533240e-04
-5.818996e-04 4.531355e-05 4.602994e-05
9.730981e-04 -3.249252e-05 5.693145e-05
-3.389845e-04 -2.121524e-03 -9.641199e-05
2.414244e-05 3.484120e-03 -6.919422e-03
7.411020e-07 -1.384961e-03 2.544546e-03
5.437874e-04 2.846045e-05 7.192319e-05
3.181262e-03 -7.310326e-06 -4.027160e-04
-1.245579e-03 -1.534391e-04 -9.409661e-06
-1.841488e-05 9.628580e-04 7.513229e-05
-8.956162e-04 1.091778e-05 1.613817e-05
1.296242e-04 -1.558870e-03 -4.245439e-05
-1.134638e-04 8.364737e-04 1.961041e-05
-6.178667e-04 -3.581381e-05 9.199116e-05
3.120315e-05 1.035042e-03 6.077737e-05
-1.440002e-05 4.023485e-03 -1.195450e-03
4.584679e-07 -1.384610e-03 2.544824e-03
-9.437187e-04 2.468306e-05 8.329442e-05
-1.316597e-05 -9.802116e-04 1.384594e-05
-1.564475e-03 -1.750876e-04 -5.827819e-05
2.067709e-04 -1.067835e-03 -1.402581e-05
3.963651e-04 2.032184e-04 3.528303e-06
-1.461526e-05 1.183485e-03 1.180965e-04
1.092793e-04 1.451204e-03 -3.359831e-05
-1.077654e-03 -1.591717e-05 2.404521e-05
1.037913e-04 5.133593e-04 1.852157e-06
-1.323638e-03 1.397915e-03 -1.283404e-04
3.019977e-07 -1.384214e-03 2.545368e-03
-1.133293e-03 6.409375e-05 1.080644e-05
7.727856e-05 -1.231317e-03 -6.164153e-05
4.174467e-04 3.617334e-04 -4.373199e-06
5.094466e-04 2.844873e-05 8.098955e-05
-4.610369e-05 1.388578e-03 -4.764208e-05
6.474872e-04 3.788901e-03 -5.191823e-03
-5.090141e-05 -5.167638e-04 2.257100e-06
-9.747628e-04 -1.424258e-05 3.246703e-05
-2.896702e-04 1.021011e-03 -2.871740e-05
-6.388482e-04 2.855032e-05 4.878247e-05
3.596792e-07 -1.384173e-03 2.545805e-03
-3.372931e-04 1.237928e-04 3.534251e-06
4.380840e-04 -2.195199e-03 -1.235582e-04
2.893249e-03 1.660511e-05 -3.470189e-04
-8.764359e-04 -6.538597e-04 -1.960748e-05
-4.563626e-04 -2.797564e-04 8.822968e-06
-7.562241e-04 -8.228771e-04 -2.944457e-05
7.393053e-04 -3.380845e-04 1.284726e-05
-3.123315e-05 2.595259e-03 -2.580226e-04
1.295983e-03 -1.397150e-04 -2.393189e-06
7.649539e-04 7.480241e-05 1.635801e-05
5.066623e-07 -1.384538e-03 2.546559e-03
-3.250303e-05 1.184199e-03 1.129869e-04
1.775486e-04 -4.346366e-04 -8.438783e-06
-9.733192e-04 -9.392042e-06 -2.341523e-05
-3.541289e-06 1.109935e-03 1.058338e-04
-4.189567e-04 -3.136681e-04 1.972220e-06
-2.289441e-03 7.980296e-04 -1.015831e-04
2.977423e-04 6.867489e-05 2.010843e-05
-1.070854e-03 7.457512e-07 4.072802e-05
-2.512328e-04 -2.965435e-04 -9.094733e-06
-3.973160e-05 -8.078306e-04 4.793066e-05
4.524761e-07 -1.385154e-03 2.547513e-03
3.161439e-03 2.629769e-05 -4.491211e-04
-5.598792e-05 3.831283e-03 -6.913580e-04
1.634588e-05 9.639284e-04 1.231019e-05
-4.797864e-05 -3.356367e-03 -5.693290e-04
-4.331507e-04 -4.349285e-03 -5.645844e-04
-2.926834e-03 -4.413459e-05 -3.324965e-04
4.927769e-04 -8.929526e-05 -2.772865e-07
3.111221e-05 1.178855e-03 1.140381e-04
-3.154040e-04 8.122934e-05 4.821999e-06
-2.670711e-03 -1.237843e-05 -2.059466e-04
5.593601e-07 -1.385461e-03 2.548484e-03
-3.434720e-05 -6.839464e-04 8.258317e-05
-1.017022e-03 8.699014e-06 3.411235e-05
3.065274e-05 -4.593702e-04 9.077425e-05
3.817126e-05 -4.898993e-04 6.790250e-05
-5.836546e-05 -1.363676e-03 -3.698389e-05
2.556804e-04 3.574648e-03 -5.453755e-03
1.334997e-05 1.606975e-03 4.196380e-04
1.003497e-03 -2.158010e-05 6.747591e-05
-1.201812e-05 7.580042e-04 9.069888e-06
1.861192e-03 5.365634e-05 -8.021951e-05
6.664099e-07 -1.385864e-03 2.549101e-03
-5.808818e-04 -2.350439e-05 4.789672e-06
1.371766e-04 2.334974e-03 -1.947042e-04
1.867288e-05 7.315312e-04 1.791778e-05
9.411191e-05 2.678017e-04 2.891207e-06
1.823325e-04 1.283254e-03 -2.563227e-05
2.153410e-04 -4.059635e-03 -6.183867e-04
2.140891e-03 -1.438459e-04 -8.783222e-05
-3.900189e-04 7.747824e-04 -2.937320e-05
1.118210e-03 -5.676672e-06 7.041669e-05
-4.914039e-04 -1.022325e-04 -3.375079e-06
7.408144e-07 -1.386105e-03 2.549806e-03
1.033832e-05 6.503453e-04 2.540060e-06
1.072985e-03 8.544931e-04 -4.238678e-05
-5.698524e-04 3.544329e-05 6.992253e-05
-1.366559e-04 -9.110971e-04 7.941748e-06
3.265256e-03 4.794111e-05 -5.199765e-04
2.291944e-05 3.466751e-03 -6.547446e-04
-1.049338e-05 2.877084e-03 -4.135494e-04
1.941160e-05 1.223299e-03 -2.177966e-05
1.540767e-05 -1.238982e-03 -9.413229e-06
1.127017e-03 -1.162169e-05 5.526533e-05
8.805602e-07 -1.386263e-03 2.550591e-03
1.510944e-05 -3.396068e-03 -5.741182e-04
6.932741e-04 3.541064e-05 4.170218e-05
1.615334e-03 1.520477e-03 -7.743755e-05
-1.912651e-03 -3.805639e-05 -7.744091e-05
-3.651954e-04 1.130342e-04 3.515910e-06
-1.282445e-03 5.676864e-05 -3.488353e-05
-6.921100e-04 -4.006405e-05 4.160752e-05
1.872836e-03 5.076606e-04 -5.692812e-05
9.616269e-05 1.826835e-04 9.370848e-06
-3.412354e-04 4.536354e-05 7.092847e-05
5.111360e-05 3.580099e-03 -7.027131e-03
1.091447e-06 -1.386365e-03 2.551380e-03
2.818286e-04 4.406138e-03 -5.691831e-03
-3.065324e-05 -7.789020e-04 9.232846e-05
-1.058452e-03 2.206557e-04 -1.717593e-05
1.007962e-05 1.909917e-03 1.267592e-03
1.103331e-03 4.402313e-04 -3.886515e-05
1.798949e-04 9.789043e-05 1.450881e-05
-1.566163e-03 2.361037e-04 -6.139516e-05
1.549626e-05 4.007885e-03 -1.170277e-03
-8.147952e-04 -1.514049e-03 -4.237412e-05
-9.332888e-05 3.196114e-04 5.296151e-06
1.529287e-06 -1.386447e-03 2.552184e-03
1.117315e-05 9.965468e-04 7.349597e-05
-2.742220e-03 -1.906952e-05 -2.193241e-04
-1.873934e-05 -9.008522e-04 2.794738e-05
-2.827715e-03 -1.289997e-05 -2.631839e-04
7.996851e-05 2.177709e-04 4.366235e-05
-2.775871e-03 2.676113e-05 -2.775161e-04
1.342986e-03 -1.120280e-04 -2.806415e-05
-2.676919e-05 1.916089e-03 -1.282328e-04
-3.560737e-04 -2.485492e-04 -5.215714e-06
2.095064e-03 2.595471e-05 -1.062919e-04
1.819053e-06 -1.386897e-03 2.552807e-03
-2.509801e-04 -1.090533e-04 5.393785e-06
-3.028059e-04 -8.440304e-04 -1.472693e-05
2.244658e-05 -1.102675e-03 -1.218724e-05
8.991671e-04 -3.291041e-05 1.377608e-04
1.585426e-04 1.415734e-03 -1.943775e-05
1.728954e-03 -2.959637e-04 -5.553046e-05
-1.234475e-04 1.552605e-04 4.376396e-06
1.181137e-04 -2.195718e-03 -1.381005e-04
-3.308218e-05 1.193645e-03 -3.093364e-05
1.440276e-03 1.035630e-04 -5.889093e-05
1.980310e-06 -1.387202e-03 2.553498e-03
9.275034e-04 -4.028696e-05 1.288716e-04
5.376305e-04 3.179999e-05 7.429660e-05
-4.666406e-05 2.398290e-03 -1.893260e-04
8.508810e-05 4.641313e-03 -4.886950e-03
-1.025774e-03 -4.069423e-05 9.620789e-05
-7.590508e-04 4.896192e-03 -8.772220e-04
2.227680e-04 -6.667454e-04 -1.331998e-06
-2.306022e-03 2.909899e-04 -1.179213e-04
6.777251e-04 -3.794590e-05 7.815632e-05
-2.480905e-05 -1.868407e-03 -8.041118e-05
2.123862e-06 -1.387470e-03 2.554286e-03
1.362353e-05 1.806999e-03 -9.703862e-05
1.189741e-03 1.595982e-05 -2.031037e-05
9.438590e-04 2.244364e-04 -1.136047e-05
1.225338e-03 -3.278674e-04 -2.090496e-05
4.584873e-04 3.320115e-05 8.193806e-05
1.146646e-04 -3.164116e-04 5.081375e-06
4.866253e-05 4.794281e-03 -3.542681e-03
1.737773e-03 1.070940e-03 -7.862372e-05
1.937089e-05 -1.020317e-03 6.802593e-05
1.452688e-03 6.639705e-04 -5.903651e-05
2.201422e-06 -1.387755e-03 2.555538e-03
5.266463e-04 3.239584e-05 1.066498e-04
-1.794345e-05 2.342730e-03 -2.063242e-04
7.435831e-04 -2.855750e-03 -1.948845e-04
4.161550e-05 -7.424876e-04 7.436186e-05
-4.875649e-05 6.243434e-04 -1.294091e-05
-3.377588e-05 5.626552e-04 2.953896e-06
-2.241994e-05 -2.070214e-03 -1.101738e-04
6.662962e-05 1.588697e-03 -5.687596e-05
1.003137e-03 4.875401e-03 -8.286171e-04
-2.857136e-04 -3.728509e-04 1.384001e-07
2.618384e-06 -1.388201e-03 2.556813e-03
8.368443e-05 2.578100e-04 5.926820e-06
1.424476e-04 4.393120e-03 -5.544188e-03
1.122565e-04 1.269751e-03 -1.286128e-05
3.014968e-03 -1.325448e-03 -2.505328e-04
2.097723e-03 -1.166612e-03 -9.109408e-05
1.568960e-05 2.276689e-03 -2.069187e-04
3.041872e-05 2.286341e-03 -1.716700e-04
5.212881e-04 9.246630e-04 4.331474e-06
-1.092283e-03 2.143373e-03 -1.716887e-04
-3.676170e-04 -1.252067e-03 -2.124275e-05
3.081378e-06 -1.388328e-03 2.557763e-03
7.307290e-05 -3.463295e-04 7.523684e-06
1.214771e-05 4.287179e-03 -1.691726e-03
-2.460473e-04 -2.522212e-04 6.503760e-06
1.063129e-03 1.543146e-04 8.064540e-06
-7.423031e-04 -3.751984e-04 -6.019182e-06
8.823322e-04 3.558165e-03 -5.708049e-03
1.409259e-05 4.583275e-03 -2.148734e-03
-1.984120e-05 1.298403e-03 -1.501337e-05
-4.454652e-05 1.798539e-03 7.273662e-04
-4.433489e-04 -5.486684e-04 -1.492751e-05
3.606429e-06 -1.388258e-03 2.558510e-03
2.677097e-04 6.417443e-05 2.652233e-05
5.036055e-06 -1.162023e-03 7.091104e-05
2.748231e-05 3.961798e-03 -1.098372e-03
1.215767e-03 -5.608119e-04 -1.997499e-05
-8.474641e-05 2.090133e-04 1.335174e-05
-2.751730e-04 5.561411e-04 8.101483e-07
2.818380e-05 6.376465e-04 1.043557e-05
3.436215e-05 -1.767768e-03 -7.568499e-05
5.058708e-05 6.739420e-04 -6.252947e-06
2.465626e-05 -6.078739e-04 8.135687e-05
4.292715e-06 -1.388209e-03 2.559281e-03
6.827648e-04 5.467708e-04 -2.088750e-05
-1.672425e-05 1.182278e-03 1.366162e-04
-1.859296e-03 1.686425e-04 -6.090646e-05
4.113467e-04 -8.954900e-04 -1.692920e-05
7.649771e-05 -9.714917e-04 -9.485118e-06
-1.187833e-03 -8.217867e-06 8.293350e-05
-2.703860e-03 2.343475e-05 -2.616422e-04
-3.167407e-03 6.373867e-05 -3.769122e-04
1.043683e-03 -3.125189e-05 5.986065e-05
5.896412e-04 2.907103e-03 -5.759221e-03
1.365717e-05 3.691181e-03 -7.189808e-03
5.141268e-06 -1.388233e-03 2.560066e-03
8.047682e-04 2.880035e-05 5.524383e-05
-1.280905e-04 1.870535e-03 9.657092e-04
-3.623621e-05 4.541767e-03 -2.213742e-03
-2.100237e-05 -6.665062e-04 1.222037e-04
-5.345066e-03 2.151852e-03 -1.203568e-03
3.399577e-05 -5.537364e-04 9.160154e-05
-7.266309e-05 1.279928e-03 -1.962718e-05
2.817661e-04 -1.525150e-04 1.970432e-06
-1.381337e-04 1.759708e-03 -9.007451e-05
-2.806806e-05 -7.562260e-04 1.026612e-04
6.062187e-06 -1.388677e-03 2.560619e-03
-5.451104e-05 5.719420e-04 -2.203697e-06
2.894618e-06 4.459029e-03 -1.984656e-03
3.349442e-05 -8.151645e-04 7.980485e-05
-6.012983e-04 2.554894e-05 4.146843e-06
-5.549723e-06 6.002861e-04 7.883008e-06
1.332396e-04 1.028272e-03 -1.034970e-05
8.232310e-05 2.484042e-04 1.639133e-05
2.402145e-05 -8.681860e-04 9.076289e-05
2.841567e-04 -1.580082e-03 -4.287205e-05
-3.405111e-05 4.299178e-03 -1.569051e-03
6.766529e-06 -1.389228e-03 2.560986e-03
1.912959e-05 3.646593e-03 -5.933909e-04
-6.073959e-04 -2.867735e-05 1.125807e-04
-5.310025e-05 -3.301287e-03 -5.630097e-04
-2.014671e-06 1.202925e-03 8.889876e-05
-2.814182e-04 -5.086786e-04 -5.376302e-06
-1.645121e-03 -1.110540e-04 -5.327786e-05
-5.830417e-05 8.146371e-04 -3.188634e-06
7.348843e-04 1.312956e-03 -2.352476e-05
5.938215e-03 7.995068e-04 -1.499216e-03
5.839025e-04 -2.793131e-04 -1.307589e-05
7.418649e-06 -1.389842e-03 2.561303e-03
1.850567e-05 1.847611e-03 -8.986708e-05
-7.442257e-04 4.399718e-05 8.736926e-05
4.160472e-04 4.354503e-03 -5.866028e-03
4.200915e-05 1.203065e-03 -1.278083e-05
-8.233331e-05 2.840380e-04 6.464444e-06
-3.043506e-05 1.190419e-03 1.106081e-04
2.151622e-03 2.708423e-05 -1.534129e-04
9.914629e-04 5.503523e-06 3.352549e-05
-7.378509e-05 -4.560356e-04 -5.255989e-06
7.973365e-04 2.439298e-04 -1.571952e-05
7.971932e-06 -1.390454e-03 2.561642e-03
1.133177e-03 -5.585094e-05 -4.855130e-06