# vtk DataFile Version 2.0
Electric current density generated by TTH
ASCII
DATASET UNSTRUCTURED_GRID
POINTS 10201 double
-5.000000e-06 -5.000000e-06 -7.500000e-08
-1.300000e-05 1.300000e-05 7.500000e-08
1.000000e-06 -5.000000e-06 -7.500000e-08
6.166544e-06 -1.635437e-06 -7.500000e-08
9.516630e-06 -1.283064e-05 -4.565444e-11
1.286485e-05 5.193900e-06 -5.103690e-12
-5.483082e-06 1.279834e-05 -2.414789e-11
1.283765e-05 -1.294655e-06 -5.097633e-11
1.407500e-06 1.280082e-05 4.836970e-12
1.284759e-05 -9.253439e-06 -5.248197e-12
-5.177669e-06 1.294108e-06 -2.516064e-10
1.602958e-06 5.128070e-06 -1.882383e-12
-1.280382e-05 1.396069e-06 8.155549e-12
1.280949e-05 1.280378e-05 -7.403079e-12
-1.635437e-06 -6.166544e-06 -7.500000e-08
1.287168e-05 -6.003588e-06 3.578557e-12
6.007489e-06 1.285920e-05 -3.665924e-12
-1.280167e-05 6.216423e-06 3.444610e-11
1.280111e-05 8.297213e-06 1.303531e-11
-5.149540e-06 -3.989140e-06 -5.739599e-12
5.175082e-06 3.884599e-06 -4.742180e-11
8.907270e-07 5.191179e-06 1.036536e-11
-2.611546e-06 -5.261783e-06 9.561873e-12
5.180039e-06 -2.772347e-06 -2.613777e-11
5.690789e-06 -1.281281e-05 6.804476e-12
-6.097697e-06 1.643870e-06 -7.500000e-08
-1.285625e-05 8.334347e-06 -2.086193e-11
8.602953e-06 1.282639e-05 -1.942412e-11
-8.409327e-06 -1.287230e-05 -8.116404e-12
4.231153e-06 -1.275691e-05 1.657547e-11
1.275688e-05 4.231282e-06 1.170469e-12
-2.234423e-07 -1.273987e-05 -3.243527e-11
5.125616e-08 1.281570e-05 1.827277e-11
1.107788e-06 -1.283213e-05 2.136823e-11
-1.280964e-05 1.042240e-05 4.583523e-10
5.205335e-06 -4.964510e-06 2.751488e-11
1.643870e-06 6.097697e-06 -7.500000e-08
3.882232e-06 -5.172427e-06 -2.337554e-11
8.015090e-06 -1.285856e-05 1.117050e-11
-1.283253e-05 -8.120065e-06 -1.215605e-11
-5.172224e-06 2.270454e-06 -1.947159e-11
-6.226383e-06 -1.281902e-05 3.597589e-11
-5.138494e-06 3.986498e-06 -7.704002e-12
-4.177220e-06 -5.175986e-06 3.173556e-11
2.834430e-06 1.282479e-05 -5.024792e-11
-4.980548e-06 1.285409e-05 -4.321649e-11
1.434626e-07 -5.260984e-06 -1.647111e-11
-8.507564e-06 -5.640928e-06 -7.500000e-08
-1.676553e-06 5.197393e-06 4.189462e-12
-1.316942e-07 5.252163e-06 6.547231e-12
-1.110989e-05 -1.280517e-05 3.940597e-11
-1.274416e-05 4.987166e-06 -6.230891e-13
4.995517e-06 1.274544e-05 1.601599e-11
1.675924e-06 -5.197005e-06 4.346828e-12
-1.288350e-05 8.162627e-07 -1.618936e-11
7.261187e-07 1.286914e-05 -2.013023e-11
1.283739e-05 -6.399854e-07 1.755624e-11
1.232492e-05 1.286208e-05 -1.027905e-10
5.640928e-06 -8.507564e-06 -7.500000e-08
4.477145e-06 -5.200984e-06 -1.206593e-11
-4.968477e-06 -1.274836e-05 2.468358e-11
-3.887495e-06 1.285110e-05 -9.615306e-11
-1.275870e-05 -4.240804e-06 1.402715e-10
-9.418713e-06 1.280553e-05 3.256561e-11
-3.140927e-06 -1.281537e-05 -1.842458e-11
-5.202220e-06 -2.851613e-06 1.885393e-11
-1.271631e-05 1.180799e-05 6.952290e-12
1.284967e-05 -1.205348e-05 -2.541194e-11
1.180958e-05 1.271355e-05 1.122866e-11
-5.629354e-06 8.505846e-06 -7.500000e-08
1.287179e-05 3.313023e-06 2.639277e-13
-1.287461e-05 -1.590195e-06 -8.002316e-12
-1.394930e-06 1.283269e-05 2.577693e-11
2.927048e-06 -5.272404e-06 -7.703076e-12
-5.183900e-06 -1.578646e-06 3.177790e-11
-1.283845e-05 -7.074792e-07 1.255845e-11
1.286809e-05 -6.683423e-06 -1.343843e-11
1.110190e-05 1.280548e-05 3.981363e-11
-1.288452e-05 6.799359e-06 6.073965e-12
-6.799654e-06 -1.288456e-05 3.792864e-13
8.505846e-06 5.629354e-06 -7.500000e-08
-1.286185e-05 -3.986667e-06 -3.295224e-11
3.536024e-06 1.281151e-05 9.228433e-12
5.176022e-06 -4.175792e-06 -1.175939e-11
4.176224e-06 5.176062e-06 -2.255450e-11
2.961735e-06 5.149152e-06 -3.437074e-12
-9.595419e-06 -1.283391e-05 1.072321e-12
-1.283300e-05 9.587809e-06 -3.202955e-11
1.281288e-05 -3.533390e-06 1.422401e-11
-1.283465e-05 -1.051165e-05 2.703021e-11
-1.285182e-05 5.226287e-06 -2.031510e-11
1.481578e-06 1.028001e-05 -7.500000e-08
-3.103540e-06 5.221324e-06 3.661862e-12
1.284325e-05 -2.130994e-06 -1.098633e-11
2.232035e-06 1.279927e-05 -2.104139e-11
5.140522e-06 -1.158038e-06 -2.490732e-11
-7.808017e-06 -1.272016e-05 2.378135e-11
-6.294187e-06 1.285951e-05 -1.061531e-10
1.283823e-05 6.204543e-06 -2.710449e-11
1.273753e-05 -1.024833e-05 -1.419980e-11
-1.281142e-05 3.159070e-06 2.289041e-10
3.954843e-07 5.130845e-06 -5.591750e-12
-1.028239e-05 1.482955e-06 -7.500000e-08
-5.195585e-06 5.969104e-07 2.132087e-11
1.279648e-05 -4.903411e-06 -2.277947e-11
1.278965e-05 2.372276e-07 2.239855e-11
9.928968e-06 1.281397e-05 -5.150687e-12
1.173592e-05 -1.284727e-05 8.202576e-11
-1.286247e-05 -1.173345e-05 3.442331e-13
-5.301606e-07 -5.136955e-06 -2.853789e-12
-1.282781e-05 7.456390e-06 3.096910e-10
-3.631737e-06 5.132385e-06 2.525866e-11
-5.156237e-06 -3.541595e-06 -5.644336e-11
6.000000e-07 -5.000000e-06 -7.500000e-08
-1.481240e-06 -1.028810e-05 -7.500000e-08
1.025951e-05 1.272851e-05 1.854335e-11
1.283219e-05 -5.308720e-06 8.158554e-12
-5.419768e-06 -1.279993e-05 1.335622e-11
4.387029e-06 1.287728e-05 1.789227e-11
-1.285852e-05 4.303921e-06 1.044796e-10
-4.397536e-06 -1.287854e-05 -1.148554e-13
-1.282503e-05 -1.803320e-06 1.172525e-10
-8.682876e-06 1.281856e-05 4.054458e-10
-9.987503e-06 1.287633e-05 -1.514666e-11
1.283581e-05 9.810063e-06 -2.962679e-11
1.028810e-05 -1.481240e-06 -7.500000e-08
9.996343e-06 -1.287417e-05 -4.726513e-12
-5.187975e-06 -7.993969e-07 -2.303757e-12
-1.285212e-05 -6.498687e-06 -3.194717e-11
4.723174e-06 -1.287928e-05 -1.331127e-10
-3.607383e-06 -5.121771e-06 8.671933e-12
-2.844941e-06 -5.140468e-06 -2.891725e-11
-1.033688e-05 -1.278856e-05 -2.329908e-10
-1.148864e-05 1.284837e-05 -5.644022e-11
7.847754e-07 -5.183631e-06 -1.588750e-12
5.168758e-06 -2.181516e-06 -3.502041e-12
-1.034439e-05 1.189084e-05 -7.500000e-08
-1.282224e-05 -2.411662e-06 1.689160e-11
-1.288790e-05 -4.793275e-06 -3.410925e-10
1.288082e-05 4.723190e-06 -1.421887e-10
-9.034574e-07 -1.287634e-05 1.270172e-11
5.136835e-06 -3.069238e-07 -9.693556e-11
-3.115640e-06 1.285908e-05 1.768982e-11
5.129507e-06 2.110379e-06 -1.355463e-10
-1.285890e-05 -3.106695e-06 5.562626e-10
3.113062e-06 -1.285751e-05 -3.331166e-10
6.587609e-06 -1.280393e-05 2.390761e-11
-1.181350e-05 -1.041078e-05 -7.500000e-08
-7.455634e-06 -1.282952e-05 1.827778e-11
6.005660e-06 -1.286111e-05 3.124824e-12
1.284053e-05 -6.988382e-06 2.373696e-11
-1.281869e-05 1.146884e-05 7.014649e-11
1.281840e-05 -1.146833e-05 -8.927926e-12
-1.283006e-05 -5.288028e-06 -4.643579e-10
2.411660e-06 -5.127153e-06 -6.653503e-12
1.280330e-05 7.799682e-06 1.490740e-12
2.147736e-06 -1.280745e-05 4.734014e-11
-5.128865e-06 -2.393179e-06 7.764008e-12
1.041078e-05 -1.181350e-05 -7.500000e-08
-7.404304e-06 1.280455e-05 3.000378e-10
5.195717e-06 2.585364e-06 1.096111e-11
-5.156105e-06 -4.833025e-06 2.510266e-09
1.283416e-05 9.318473e-06 -6.170692e-12
-1.281670e-05 8.973962e-06 2.157269e-11
-5.788977e-06 1.276920e-05 1.326917e-11
-1.257537e-05 1.282839e-05 1.814350e-11
1.282638e-05 -8.602994e-06 2.226470e-11
3.983453e-06 -1.286085e-05 1.342082e-12
1.281754e-05 1.023240e-06 -2.252896e-11
1.189084e-05 1.034439e-05 -7.500000e-08
-5.061102e-06 5.192366e-06 -1.355730e-10
5.190400e-06 5.061247e-06 -1.809877e-12
-5.057559e-06 -5.145212e-06 1.133486e-08
-5.996956e-06 -1.286900e-05 -5.279264e-13
5.135037e-06 -1.700242e-06 9.149540e-12
-1.700423e-06 -5.134725e-06 9.681918e-12
1.282250e-05 2.914975e-06 6.447943e-11
2.764490e-06 5.172107e-06 -2.139449e-11
-1.281566e-05 5.077177e-08 -4.005258e-11
1.281205e-05 -5.665748e-08 1.774539e-11
6.133762e-06 3.251478e-06 -7.500000e-08
5.251628e-06 4.168385e-06 8.827886e-12
1.285428e-05 4.982296e-06 3.806970e-11
8.597623e-06 -1.278042e-05 2.232126e-11
-1.283578e-05 6.302901e-07 -1.176348e-11
-1.286669e-05 1.248034e-05 -1.653823e-11
1.280982e-05 -1.280921e-05 -4.352600e-12
-3.395514e-06 1.284191e-05 -2.891311e-11
9.253503e-06 1.284758e-05 -3.615608e-11
-5.171233e-06 3.046549e-06 -4.282715e-11
7.217696e-07 -1.284318e-05 -7.892650e-11
-3.251478e-06 6.133762e-06 -7.500000e-08
-2.822985e-06 -1.283820e-05 -3.546830e-11
1.271462e-05 -1.180038e-05 -9.087673e-12
3.385582e-06 -1.277944e-05 4.448219e-09
-7.135379e-07 1.284169e-05 -6.572302e-11
1.282836e-05 -2.831126e-06 3.242826e-11
-5.158314e-06 4.481242e-06 -6.638146e-12
5.156993e-06 -4.473408e-06 -7.488621e-11
1.279091e-05 -7.993710e-06 2.945720e-11
1.076775e-05 1.281711e-05 -2.723036e-12
-3.758114e-06 -1.280262e-05 -5.276705e-11
-6.133762e-06 -3.251478e-06 -7.500000e-08
4.480352e-06 5.158380e-06 -7.668401e-12
-1.286652e-05 2.740429e-06 -1.022577e-10
5.191822e-06 3.184253e-06 -6.465135e-12
-2.022616e-06 -1.286751e-05 1.487146e-11
1.999027e-06 1.286228e-05 3.136802e-12
-1.286188e-05 2.144201e-06 -3.424114e-12
-1.205347e-05 -1.284967e-05 -1.948321e-11
-1.157979e-06 -5.140611e-06 -2.090883e-11
4.782989e-06 -5.145917e-06 -9.802211e-12
-5.143747e-06 3.149440e-07 1.405942e-11
3.241850e-06 -6.139952e-06 -7.500000e-08
1.894059e-06 5.121066e-06 -8.401293e-12
1.285380e-05 -7.545300e-06 3.373053e-11
-1.181812e-05 1.280737e-05 -2.586422e-11
7.798789e-06 -1.280219e-05 -1.750981e-12
3.547090e-06 -5.153462e-06 1.878967e-11
-5.184878e-06 -3.790287e-06 -3.483111e-11
1.280197e-05 1.219237e-05 2.526961e-11
-1.703983e-06 1.285951e-05 -1.609740e-11
1.285678e-05 7.182395e-06 1.125328e-11
-5.202712e-06 -1.837734e-06 -1.080735e-11
2.000000e-07 -5.000000e-06 -7.500000e-08
-6.131066e-06 4.744108e-06 -7.500000e-08
7.180030e-06 -1.285698e-05 -7.944457e-12
-1.283142e-05 -9.790888e-06 -1.051233e-12
1.157455e-05 1.284439e-05 1.117660e-11
-4.451128e-06 1.286543e-05 2.402458e-11
-1.283393e-05 5.895305e-06 3.542150e-12
-6.571329e-06 1.280665e-05 -7.884601e-12
-7.856861e-07 5.185634e-06 -2.908133e-12
-1.285261e-05 -1.148267e-05 2.265153e-11
5.137288e-06 -5.296763e-07 -1.374879e-12
-3.123956e-07 -5.134619e-06 3.636369e-13
4.744108e-06 6.131066e-06 -7.500000e-08
-3.398379e-06 -5.151986e-06 -2.420347e-12
3.506302e-06 5.129059e-06 -1.051319e-10
-5.117191e-06 2.006332e-06 1.028567e-11
-5.188759e-06 -5.769923e-07 -1.984662e-15
1.286118e-05 2.341398e-06 -3.304306e-11
5.128854e-06 2.393155e-06 1.794627e-11
[...]
POINT_DATA 10201
VECTORS 10.000GHz_fone_imag double
-2.076915e+12 1.903736e+12 -1.636185e+09
2.101308e+10 2.174508e+10 -4.291528e+07
-1.734040e+12 -4.383137e+09 4.803763e+08
-3.846806e+10 -9.322811e+11 8.725472e+07
-2.723585e+11 -1.003134e+10 5.838799e+07
5.202926e+09 -4.967826e+11 1.671952e+07
4.602111e+11 1.088990e+10 -6.240614e+07
-2.816617e+09 -5.868139e+11 1.491348e+08
5.686906e+11 -4.958111e+09 -2.712757e+08
-8.399310e+09 -2.914036e+11 -1.147860e+08
1.210941e+10 1.631360e+12 2.224946e+08
1.745458e+12 -6.637319e+09 -2.499987e+08
4.489664e+09 5.689078e+11 -3.111314e+08
3.223311e+10 -3.272033e+10 1.487689e+07
-9.038916e+11 4.003095e+10 -2.982186e-06
-5.204232e+09 -4.676340e+11 -3.819375e+07
4.615912e+11 -5.656892e+09 1.618470e+07
1.098538e+10 4.263366e+11 -1.666619e+08
1.161600e+10 -3.299228e+11 -1.412588e+08
-5.332433e+10 2.028949e+12 -4.303074e+08
4.015364e+10 -1.962118e+12 1.109970e+09
1.611235e+12 -1.174346e+10 2.990586e+08
-1.614498e+12 3.097795e+10 -3.561369e+07
-3.010767e+10 -1.726067e+12 9.312767e+08
-4.578766e+11 -6.101732e+09 -1.980083e+08
3.712294e+10 9.280934e+11 5.038846e+09
7.171939e+09 3.400522e+11 -1.363926e+08
3.171089e+11 -1.148995e+10 -1.474987e+07
-3.452354e+11 5.679064e+09 -3.311712e+07
-4.946385e+11 -7.958909e+09 1.482477e+08
7.875410e+09 -4.947216e+11 -1.661857e+08
-5.608315e+11 9.562920e+08 8.977854e+07
5.852965e+11 -2.368410e+09 9.551498e+07
-5.901264e+11 -3.124334e+09 -1.405718e+08
9.671073e+09 2.174999e+11 9.636045e+07
-1.162374e+12 -2.693334e+12 1.429430e+10
9.592287e+11 -4.010364e+10 -1.717529e+09
-1.966840e+12 -4.094809e+10 -1.124081e+09
-3.600925e+11 -6.120282e+09 2.363025e+07
-9.488071e+09 3.432176e+11 9.517806e+07
-2.543816e+09 1.715336e+12 2.696595e+08
-4.314353e+11 1.176143e+10 3.944753e+07
4.482883e+10 2.053640e+12 -7.624291e+08
-2.044373e+12 1.058252e+11 1.955871e+09
5.526327e+11 -6.331661e+09 -4.361296e+08
4.958288e+11 9.440553e+09 5.307392e+07
-1.515859e+12 1.468579e+10 1.320674e+08
-1.751621e+11 3.409188e+11 -1.717817e+08
1.632656e+12 1.413920e+10 4.258283e+08
1.522343e+12 -1.278080e+10 2.564485e+08
-1.769208e+11 1.198630e+10 6.933100e+07
9.887564e+09 4.646174e+11 1.184689e+08
4.638623e+11 -1.058422e+10 -1.573460e+08
-1.632975e+12 -1.404555e+10 4.917764e+08
-6.131841e+08 6.204414e+11 -2.990857e+06
6.054495e+11 4.228030e+08 -1.018471e+08
2.359561e+09 -5.918590e+11 -2.242927e+08
9.329626e+10 -1.388716e+10 -1.187285e+08
-3.292394e+11 -1.647641e+11 1.102757e+08
-2.201613e+12 -2.088118e+11 -1.758771e+09
-4.648690e+11 9.734572e+09 -2.300809e+08
5.349734e+11 6.444787e+09 -1.571426e+08
-8.185072e+09 4.944925e+11 1.774055e+08
2.706024e+11 1.166897e+10 1.003656e+08
-5.430495e+11 4.031558e+09 -7.985591e+06
-2.195281e+10 1.706528e+12 4.613554e+08
2.029968e+10 1.218772e+11 -3.731934e+08
-1.056484e+10 -1.173355e+11 2.599814e+07
1.221352e+11 -2.035366e+10 -3.744109e+08
3.411754e+11 1.738502e+11 3.492044e+08
4.155063e+09 -5.601810e+11 -8.656351e+07
-2.586115e+09 6.071557e+11 -1.314955e+07
5.791989e+11 -4.877825e+07 -1.896313e+08
-1.628287e+12 -1.682434e+10 -5.840275e+07
3.369837e+09 1.634235e+12 -1.113163e+08
-7.481423e+08 5.905389e+11 -7.464594e+07
-6.908840e+09 -4.229342e+11 -9.982675e+07
1.767804e+11 -1.225924e+10 7.886388e+07
5.483121e+09 4.327981e+11 -1.018421e+07
-4.330998e+11 5.536035e+09 -4.267232e+07
1.726878e+11 -3.385432e+11 1.084510e+09
-6.309534e+09 5.431270e+11 3.271414e+06
5.321687e+11 -8.332786e+09 -5.556531e+07
-1.085915e+11 -2.047753e+12 -2.400022e+09
2.044173e+12 -1.065887e+11 -2.045040e+09
1.817042e+12 -2.207519e+10 -2.003231e+08
-2.684671e+11 1.016267e+10 7.924980e+07
1.105547e+10 2.675232e+11 -4.899064e+07
-8.158847e+09 -5.326665e+11 2.801668e+07
-9.233888e+09 2.176178e+11 1.112726e+08
3.933618e+09 4.921858e+11 -1.956608e+07
3.634499e+11 -2.588356e+10 -3.358942e+08
1.717860e+12 3.208836e+10 -2.626218e+08
-4.421607e+09 -5.727133e+11 -1.045211e+08
5.545523e+11 -7.205921e+09 -5.321666e+07
-3.922548e+09 -1.691975e+12 2.288614e+08
-3.348779e+11 1.342784e+10 -2.878856e+08
4.419552e+11 7.166086e+09 1.972443e+08
7.607883e+09 -4.376373e+11 3.443392e+08
-1.449836e+10 -2.167979e+11 2.763788e+08
2.560502e+09 5.412701e+11 -1.095942e+07
1.700914e+12 2.542432e+09 1.315735e+08
2.621467e+10 3.633108e+11 9.967696e+07
-9.323635e+09 1.584367e+12 -1.993365e+08
-6.975779e+09 -4.815924e+11 -1.403913e+08
1.906568e+09 -5.737373e+11 3.273740e+08
2.458518e+11 -1.128582e+10 -6.683790e+07
-1.398930e+11 -1.260181e+10 -4.278612e+08
-1.263881e+10 1.443484e+11 4.265158e+07
-1.677974e+12 -1.483492e+10 6.641742e+07
1.035584e+10 3.760319e+11 1.340871e+08
1.973284e+12 3.630447e+10 -2.694848e+07
-4.009779e+10 1.892558e+12 2.619679e+08
-1.722260e+12 -1.179084e+09 -4.585770e+08
-3.632932e+11 2.451795e+10 8.163927e-07
2.151446e+11 -1.483596e+10 -2.199399e+08
-7.052481e+09 -4.782267e+11 -1.257544e+08
-4.626055e+11 1.032918e+10 -2.996179e+08
5.361709e+11 -3.645441e+09 -4.210680e+07
3.788073e+09 5.217679e+11 6.695503e+07
-5.374961e+11 3.432410e+09 -3.223639e+07
-6.147185e+09 5.727016e+11 -1.212267e+08
3.120532e+11 9.223884e+09 9.394698e+07
2.577561e+11 6.501610e+09 -4.126535e+07
9.904988e+09 -2.550828e+11 3.957291e+08
-2.481393e+10 -3.642330e+11 5.784753e+07
-2.561319e+11 -6.240549e+09 -5.929892e+07
-9.776586e+09 1.617041e+12 6.952110e+08
-9.716836e+09 4.290090e+11 1.138020e+08
-5.189620e+11 -4.802552e+09 2.370148e+08
-1.995583e+12 2.937208e+10 -3.341995e+08
-1.822317e+12 2.710930e+10 3.623749e+07
-2.185222e+11 1.233016e+10 -3.894386e+07
1.560312e+11 1.107250e+10 2.349349e+08
-1.618870e+12 -4.359015e+09 8.306419e+08
2.046976e+09 -1.690848e+12 7.220708e+08
1.426471e+11 5.057110e+10 2.353354e+08
-6.778971e+09 5.629499e+11 -3.199254e+08
-4.530931e+09 5.267755e+11 6.737385e+07
4.348569e+09 -5.201566e+11 1.522407e+08
-6.069717e+11 1.139959e+09 -1.658572e+08
-3.533227e+09 -1.660498e+12 -3.310670e+08
5.632202e+11 3.034262e+09 -2.032859e+08
1.804924e+10 -1.748456e+12 -9.727908e+08
-2.755521e+09 5.612139e+11 -1.436360e+08
-5.602862e+11 -3.835114e+09 1.045033e+08
-4.105751e+11 -1.347056e+10 -2.784487e+08
-5.335555e+10 1.357716e+11 -3.756916e+08
-3.764526e+11 1.044386e+10 1.295184e+08
-4.621934e+11 -5.008592e+09 -4.299288e+07
-1.079310e+10 -3.998785e+11 1.967638e+08
1.341288e+10 1.551953e+11 7.894966e+07
-1.326422e+10 -1.553056e+11 -6.191927e+07
-8.176149e+09 4.760526e+11 -1.818506e+07
-1.806073e+12 -7.918721e+09 -4.609251e+08
9.391883e+09 -3.534584e+11 -3.575337e+08
-5.627738e+11 -1.766049e+09 -1.470196e+08
-2.453755e+09 1.799705e+12 -3.569726e+08
-1.288500e+11 -5.885678e+10 2.564538e+08
3.696175e+11 1.137275e+10 -1.915587e+08
5.881925e+08 -1.692250e+12 6.825205e+08
-6.508588e+11 2.883911e+12 -3.368656e+10
8.632007e+09 -2.830926e+11 -5.347848e+07
1.058514e+10 2.962381e+11 2.577873e+08
4.374728e+11 7.975353e+09 -2.690664e+08
6.400101e+10 2.368869e+10 3.371808e+08
-1.143884e+10 -3.171570e+11 3.952580e+07
-5.429821e+11 -6.020947e+09 6.235774e+07
3.919734e+09 -5.795603e+11 -2.994206e+08
5.315824e+10 -1.363827e+11 1.091105e+07
2.262084e+12 1.635763e+12 -8.385600e+09
1.636471e+12 -2.261101e+12 1.051015e+10
-2.480573e+12 2.157507e+12 5.149734e+10
-4.661727e+11 6.033791e+09 -3.501457e+07
-1.409940e+10 -1.726585e+12 7.275883e+08
-1.727345e+12 1.521239e+10 6.762301e+08
1.338714e+09 -5.615778e+11 1.981145e+08
1.728301e+12 -2.843226e+10 1.137791e+09
2.362262e+09 5.852890e+11 -1.056163e+08
-1.322620e+09 -5.834152e+11 1.115548e+08
1.342866e+11 -9.517996e+11 1.199816e+09
1.097375e+11 -1.926279e+12 2.972629e+09
9.587282e+09 -4.955589e+11 -9.563084e+07
-3.080351e+11 -1.105725e+10 -2.706175e+08
-3.415855e+09 5.922295e+11 2.579451e+08
1.709736e+10 7.732750e+10 -2.908251e+08
-3.228812e+10 -3.234458e+10 1.073891e+07
5.440561e+11 7.412985e+09 -1.522530e+08
2.914451e+11 -8.405968e+09 7.651817e+07
2.700683e+10 1.779173e+12 1.777365e+09
-5.934862e+11 -5.243749e+07 5.647543e+07
9.336276e+11 1.245507e+11 2.258437e+09
-5.552625e+11 5.890259e+09 -3.430343e+08
-2.019690e+10 -1.224912e+11 3.845416e+08
-5.253020e+11 -6.927355e+09 -4.514396e+08
5.920169e+11 -5.167292e+07 9.298959e+07
-5.843952e+09 -5.544119e+11 3.303479e+08
1.567702e+11 2.275474e+12 3.661645e+09
-1.575241e+11 -2.284635e+12 3.683290e+09
-8.045420e+09 -3.408029e+11 1.226770e+07
1.994922e+11 -1.163762e+10 7.468522e+07
-5.226948e+11 4.054956e+09 1.254565e+08
-1.156318e+11 9.628214e+11 -3.967105e+08
2.274567e+12 -1.591372e+11 4.149351e+09
3.770754e+09 5.769412e+11 1.093858e+08
3.536123e+10 -1.768731e+12 -8.902850e+07
-5.937688e+11 1.570620e+09 -4.158628e+07
5.931931e+11 -3.212089e+09 -3.117853e+06
7.042796e+09 5.851022e+11 3.166382e+07
-1.173508e+11 1.061054e+10 -2.217614e+07
-1.691644e+12 3.735005e+09 -1.950679e+08
-2.836426e+12 -3.781937e+11 -6.010314e+07
8.579871e+08 1.658112e+12 5.905784e+08
-9.890137e+11 -1.162813e+11 3.597544e+07
1.744016e+12 -5.457043e+09 -6.431793e+08
-8.549404e+09 -3.807732e+11 -2.732968e+07
1.282771e+11 1.694262e+10 5.838097e+08
-3.529127e+11 -9.761606e+09 3.058326e+08
-1.898146e+12 -4.443874e+10 -7.325468e+07
-4.722142e+10 1.904092e+12 -1.986069e+09
1.850497e+10 -9.928370e+10 -4.313372e+08
5.877601e+11 2.670261e+09 8.508252e+06
6.347342e+09 -4.015351e+11 3.651687e+07
-2.993537e+10 1.612143e+12 -1.460068e+09
-1.674196e+12 1.642074e+09 -9.330777e+08
3.537255e+11 9.134931e+11 -5.534235e+09
-4.019157e+11 -6.416473e+09 5.535342e+07
-1.010775e+10 2.551319e+11 3.947565e+08
1.529923e+11 -1.022999e+10 -5.869584e+06
5.279072e+11 1.730041e+09 7.984096e+07
8.345737e+09 4.517146e+11 -2.006117e+08
4.116019e+11 1.345022e+10 2.457233e+08
1.616961e+12 4.594231e+09 7.555041e+08
-1.020562e+10 1.571960e+11 -2.342804e+08
1.318529e+10 -1.676522e+12 2.349261e+07
-1.665678e+12 2.489171e+09 5.091631e+08
9.283629e+11 -3.629677e+11 -1.829780e+09
-1.858320e+12 4.318054e+10 -9.590516e+08
1.927826e+12 -3.363947e+10 -6.831502e+08
5.073081e+09 1.792080e+12 -2.347614e+08
-6.083747e+09 1.617258e+12 1.164774e+08
4.881476e+09 -5.863644e+11 3.062789e+07
2.210790e+09 -1.799124e+12 -1.984197e+08
-1.155922e+10 8.980618e+10 -4.531083e+07
3.934039e+11 9.602079e+09 -1.801785e+08
5.089605e+11 -8.521256e+09 -1.515955e+08
-1.066738e+10 4.949740e+11 -2.008990e+08
-3.597988e+11 -9.841495e+11 6.406069e+08
-5.936614e+11 -1.861293e+09 2.572371e+08
1.607858e+09 -6.089515e+11 -9.579330e+06
-6.034516e+11 7.922447e+08 -1.604750e+07
9.911403e+09 -3.101581e+11 -1.681926e+08
-2.322131e+12 -1.535515e+12 3.479120e+09
-2.271718e+12 1.614465e+11 4.296072e+09
2.356672e+10 1.815051e+12 5.810010e+07
6.204251e+09 -3.605649e+11 -4.791170e+07
-6.580940e+09 -5.067117e+11 2.811275e+08
-2.652434e+11 2.197415e+12 -2.152635e+09
-9.686562e+11 3.966991e+11 4.938764e+08
1.074329e+10 5.319947e+11 -3.640323e+08
1.684091e+12 5.550974e+08 -6.828482e+08
-4.900822e+11 4.921208e+09 -4.415157e+07
-3.283358e+09 -1.634276e+12 6.046740e+07
4.752266e+11 -6.836114e+09 -7.642450e+07
-5.662257e+11 1.032920e+09 -3.037735e+08
2.890262e+09 5.969990e+11 -1.333663e+07
-3.116036e+10 -1.778087e+12 -1.714049e+09
-6.328178e+09 2.560015e+11 5.293376e+07
6.030562e+11 -1.684153e+09 -6.368516e+07
-2.104013e+11 4.854898e+11 2.904007e+08
-3.358785e+10 -1.932647e+12 7.181443e+08
5.830278e+11 2.116034e+09 -1.148613e+07
-1.047321e+10 -2.480736e+11 -7.167896e+07
1.742643e+10 -7.617873e+10 -2.521617e+08
-8.906386e+10 -1.172129e+10 -6.283370e+07
-1.737185e+12 -1.432419e+10 -2.392926e+09
1.557672e+10 1.709226e+12 -1.769504e+09
7.389421e+09 5.081459e+11 1.392663e+08
-2.330541e+10 6.425628e+10 -3.400843e+08
1.172366e+10 2.345731e+11 -1.126065e+08
-4.773244e+11 -2.068781e+11 4.742911e+08
-5.762827e+11 -2.729525e+09 -2.685999e+08
3.580215e+11 -2.810301e+12 4.694231e+08
2.798243e+12 3.738837e+11 4.501793e+08
4.692644e+11 2.029828e+11 8.312404e+07
1.979659e+11 -4.693803e+11 4.711267e+08
3.940163e+11 1.072255e+10 -1.134779e+08
-1.114109e+10 3.909970e+11 2.468494e+08
-1.751176e+12 7.610129e+09 3.800267e+08
1.014545e+10 -3.965177e+11 2.264466e+08
-3.968544e+11 -1.023838e+10 9.946434e+06
-1.082578e+11 4.553194e+11 1.047193e+08
4.582962e+11 1.126138e+11 5.637085e+08
1.129838e+11 -4.579005e+11 3.158335e+08
-4.728499e+11 -1.136214e+11 6.455892e+08
2.818483e+11 -8.881576e+10 -2.991464e+08
9.054083e+10 2.837266e+11 -1.134721e+08
-2.824546e+11 8.837527e+10 -2.333814e+08
-8.835497e+10 -2.860998e+11 -1.184503e+08
-1.732251e+12 -6.417412e+09 2.461422e+09
-2.811336e+10 3.607497e+11 5.775215e+08
-3.641075e+11 -2.795591e+10 1.877477e+08
3.656782e+11 2.665496e+10 -2.645298e+08
2.875120e+10 -3.561928e+11 9.285889e+07
-7.733495e+10 3.071866e+11 3.092719e+07
-3.067037e+11 -8.020050e+10 1.670206e+08
3.075471e+11 8.229549e+10 3.930580e+07
8.244786e+10 -3.037855e+11 -1.733229e+07
4.435267e+11 -3.291901e+10 5.819983e+07
3.385665e+10 4.484835e+11 -2.419880e+08
-1.730028e+12 5.956444e+09 -1.731859e+09
-1.026937e+11 1.460315e+11 -1.511956e+08
-1.459698e+11 -1.049955e+11 1.220186e+08
1.044605e+11 -1.526734e+11 2.695824e+08
1.503789e+11 1.049308e+11 1.645575e+08
-2.293373e+11 4.538546e+10 -2.058979e+08
-4.396388e+10 -2.280475e+11 1.537206e+08
2.319263e+11 -4.366852e+10 -6.378958e+08
4.422264e+10 2.274964e+11 9.535915e+08
-5.340199e+11 2.827481e+11 1.292789e+09
-2.910782e+11 -5.466816e+11 1.345204e+09
-1.774888e+12 5.840307e+09 -1.801663e+08
2.919314e+11 5.361918e+11 5.767852e+08
5.227597e+11 -2.812889e+11 1.646712e+09
-4.378609e+11 -6.941787e+09 -1.186021e+08
5.818019e+09 -4.381390e+11 3.716591e+08
4.501728e+11 1.292047e+09 4.541204e+06
-2.781803e+09 4.463510e+11 -1.000115e+08
-1.459453e+11 9.562814e+10 -1.371741e+08
-9.539201e+10 -1.452868e+11 -3.125941e+08
1.486263e+11 -8.896041e+10 -5.278940e+08
8.946471e+10 1.512227e+11 3.390592e+07
-1.833821e+12 7.424933e+09 -9.384659e+08
-3.780769e+10 -4.681057e+11 -2.794680e+08
-4.742851e+11 3.722902e+10 -1.705844e+08
3.411120e+11 -3.242114e+10 -4.883530e+08
2.988791e+10 3.460474e+11 -4.417392e+08
-3.372343e+11 3.385841e+10 1.858134e+08
-3.394122e+10 -3.347798e+11 1.026314e+07
-1.568460e+11 -1.031768e+12 2.007430e+09
-1.070056e+12 1.670791e+11 -5.921079e+09
1.542169e+11 1.075121e+12 -3.904106e+09
1.037377e+12 -1.574243e+11 1.670402e+09
-1.834454e+12 -3.015448e+09 1.932198e+09
-1.339517e+11 4.695186e+10 -7.970505e+07
-5.109471e+10 -1.321984e+11 -4.341163e+08
1.382472e+11 -4.876971e+10 7.333049e+08
5.005486e+10 1.369986e+11 1.717934e+08
9.376507e+10 -6.038940e+11 -3.159510e+08
-9.136411e+10 5.856417e+11 -4.883068e+08
5.756056e+11 9.458922e+10 -2.261803e+08
-5.970202e+11 -9.651209e+10 1.102615e+09
9.962709e+11 -1.262951e+09 -2.574599e+09
-2.100634e+09 9.705778e+11 -2.089777e+08
-1.783893e+12 1.697383e+10 -8.762044e+08
2.817124e+09 -9.392053e+11 -1.056125e+09
-9.777326e+11 -3.805738e+09 -4.083638e+08
2.120510e+11 1.422662e+11 1.883501e+08
1.434494e+11 -2.120406e+11 -4.271578e+08
-1.392336e+11 2.015884e+11 1.356268e+07
-2.065256e+11 -1.436037e+11 -1.953334e+08
-6.619753e+10 -3.778192e+11 2.899021e+08
-3.793132e+11 6.972574e+10 1.264445e+07
-4.623914e+10 2.090014e+11 -3.798594e+08
-2.130389e+11 -4.495434e+10 -3.086558e+08
-2.837271e+10 1.700576e+10 -1.009750e+09
-1.929590e+12 1.093385e+10 7.374768e+08
2.216570e+11 4.050891e+10 2.540547e+08
4.586668e+10 -2.100703e+11 -1.470466e+08
6.867835e+10 -6.558319e+10 2.250641e+08
6.271229e+10 7.010101e+10 5.513320e+08
-6.783053e+10 6.597403e+10 -8.624183e-08
-7.139288e+10 -6.199107e+10 2.850157e+07
-8.606981e+10 -3.243051e+11 -2.102913e+08
-3.268033e+11 8.789357e+10 -1.327232e+07
9.107254e+10 3.249772e+11 4.936088e+08
3.240425e+11 -8.989629e+10 -1.698691e+08
-1.997444e+12 2.006352e+10 -1.621001e+09
-7.269860e+10 2.685745e+11 6.133830e+06
-2.699352e+11 -7.244438e+10 -1.970299e-07
2.721060e+11 7.424043e+10 -2.625354e+08
7.278861e+10 -2.740921e+11 1.040353e+07
4.170734e+10 -3.859489e+11 -1.331633e+08
-3.763919e+11 -3.341629e+10 5.879770e+08
-4.259041e+10 3.931717e+11 5.496632e+08
3.710729e+11 3.402252e+10 1.650099e+08
-3.496426e+10 3.144616e+11 -4.969273e+07
-3.143428e+11 -3.380322e+10 -1.639188e+08
-2.101758e+12 1.697323e+10 1.950491e+09
3.046769e+11 3.799078e+10 2.860571e+08
3.577387e+10 -3.103714e+11 -7.414002e+08
2.230966e+11 -1.109769e+12 2.821896e+09
1.209771e+12 2.381696e+11 -2.347276e+09
-1.181123e+12 -2.186162e+11 3.371096e+09
-2.425349e+11 1.177109e+12 -1.354516e+09
4.141370e+11 -4.317142e+09 -7.206730e+08
4.044108e+09 4.089472e+11 2.255674e+08
-4.109673e+11 4.122804e+09 -1.870014e+08
-3.919785e+09 -4.090890e+11 -1.931861e+08
-2.248459e+12 5.129050e+10 -1.857282e+09
3.036094e+11 3.600932e+11 6.829329e+08
3.550033e+11 -3.017801e+11 1.278899e+08
-3.489365e+11 3.559018e+11 7.182554e+08
-3.394783e+11 -3.315595e+11 1.789354e+08
-2.176336e+11 8.573637e+10 -7.715465e+07
-8.613447e+10 -2.181645e+11 -2.228850e+08
2.183497e+11 -8.287607e+10 2.460206e+08
8.734919e+10 2.162690e+11 -1.352770e+08
3.269669e+10 6.117847e+11 -1.344617e+08
5.995679e+11 -3.197126e+10 4.727084e-06
-2.534398e+12 1.380527e+11 1.813894e+10
-3.374162e+10 -5.959610e+11 -1.079172e+09
-6.037053e+11 3.434983e+10 -3.451442e+08
-2.039891e+11 4.284409e+10 -4.833083e-07
-4.455749e+10 -2.036567e+11 1.313189e+08
2.021693e+11 -4.409570e+10 2.967889e+08
4.118416e+10 2.030456e+11 1.902525e+08
-1.616920e+10 3.721871e+11 1.195920e+08
1.589206e+10 -3.823971e+11 2.796004e+07
-1.121243e+11 8.448429e+10 2.361026e+08
-8.576630e+10 -1.117294e+11 -1.795380e+08
6.902399e+10 -1.243241e+10 2.087998e+07
1.078406e+11 -8.415224e+10 -2.922416e+07
8.296173e+10 1.085505e+11 1.318320e+08
7.259947e+10 3.736269e+11 -3.292922e+08
3.723301e+11 -7.219011e+10 -3.445316e+08
-3.660235e+08 -6.130591e+11 -2.906482e+08
-5.952871e+11 -3.469414e+08 5.090933e+08
-8.754415e+08 5.885555e+11 8.055415e+08
6.131721e+11 -3.400582e+09 -1.181733e+09
3.928874e+11 1.028093e+10 3.940221e+08
-3.863607e+11 -1.099411e+10 8.586273e+07
1.110219e+11 -5.803071e+09 2.824026e+08
3.562402e+11 2.823124e+10 3.092694e+08
2.566562e+10 -3.695932e+11 -7.598335e+07
-2.819761e+10 3.562094e+11 3.161021e+08
-3.617737e+11 -2.838259e+10 -6.822383e+07
-1.052413e+11 3.149609e+11 3.379223e+08
-3.182820e+11 -1.094130e+11 -4.617254e-07
3.216592e+11 1.138476e+11 -4.755530e+08
1.114232e+11 -3.189965e+11 -5.590803e+08
1.067343e+12 4.108950e+10 8.249702e+08
-3.702804e+10 1.021214e+12 1.320052e+09
1.402208e+11 -9.292756e+09 -1.377456e+08
-1.022153e+12 -3.713907e+10 1.273846e+09
4.060691e+10 -1.023193e+12 2.220088e+09
2.032958e+11 2.396024e+11 -6.850432e+07
2.430579e+11 -1.971618e+11 -3.644837e+08
-2.691868e+11 2.043694e+11 -4.092363e+08
-2.038589e+11 -2.720371e+11 6.587571e+07
-2.208181e+11 2.976071e+11 3.895235e+07
-2.994627e+11 -2.231450e+11 9.457837e+08
2.325036e+11 1.974343e+11 -3.389161e+08
1.919965e+11 -2.344851e+11 1.762169e+08
1.737646e+11 -6.784017e+09 5.013684e+07
3.020505e+11 2.193648e+11 4.019441e+07
2.190194e+11 -2.947620e+11 -1.141346e+09
-2.002712e+11 2.339590e+11 1.085407e+09
-2.297049e+11 -1.979026e+11 1.096657e+09
-6.672759e+10 -4.748464e+11 4.281223e+08
-4.751743e+11 6.649208e+10 4.040693e+08
-2.956160e+11 3.692214e+10 -1.285190e+08
-3.457180e+10 -3.068615e+11 -6.877475e+08
3.106786e+11 -3.273787e+10 -1.825435e+08
3.754934e+10 2.963476e+11 1.443665e+08
1.960513e+11 -8.216205e+09 -2.720566e+08
-2.708699e+11 1.295083e+11 6.873676e+05
-1.321568e+11 -2.677775e+11 -1.666413e+08
2.664248e+11 -1.315086e+11 1.303890e-06
1.336749e+11 2.646944e+11 -7.824240e+07
1.519307e+11 1.968881e+11 5.953469e+08
2.003672e+11 -1.507189e+11 -4.550338e+08
-2.058070e+11 1.536410e+11 -2.169846e+07
-1.503128e+11 -2.026247e+11 8.029043e+07
9.762611e+10 6.184559e+11 -2.538976e+07
6.182921e+11 -9.764276e+10 -9.001176e+07
-2.123047e+10 -2.125647e+10 3.623477e+06
2.269317e+11 -3.391031e+09 3.640311e+08
-9.782157e+10 -6.475366e+11 2.213444e+09
-6.235246e+11 9.856571e+10 -5.034062e+08
-4.311808e+11 -5.078747e+10 8.744622e+07
-4.900792e+11 -3.219718e+10 -3.760820e+08
3.377395e+10 -4.833167e+11 -4.879208e+05
4.364585e+11 4.963576e+10 -2.168928e+08
4.988243e+11 3.008095e+10 8.077364e+07
-3.601102e+10 4.846121e+11 5.388982e+07
2.823951e+11 3.890281e+10 9.780776e+08
3.718812e+10 -2.876380e+11 3.007189e+08
2.409024e+11 -6.985504e+09 -1.656095e+08
-3.444179e+10 2.929081e+11 -9.429119e+08
-2.972239e+11 -3.292045e+10 1.780362e+08
-7.861203e+10 2.336640e+11 2.250214e+07