# vtk DataFile Version 2.0
Electric current density generated by TTH
ASCII
DATASET UNSTRUCTURED_GRID
POINTS 9702 double
-5.000000e-06 -5.000000e-06 -7.500000e-08
-1.300000e-05 1.300000e-05 7.500000e-08
2.000000e-07 -5.000000e-06 -7.500000e-08
9.213274e-06 -1.032715e-05 -7.500000e-08
1.031742e-05 9.145995e-06 -7.500000e-08
-9.145995e-06 1.031742e-05 -7.500000e-08
-8.013817e-06 -1.196355e-05 -7.500000e-08
1.196355e-05 -8.013817e-06 -7.500000e-08
8.013817e-06 1.196355e-05 -7.500000e-08
-1.196355e-05 8.013817e-06 -7.500000e-08
-5.147345e-06 -7.053052e-06 -7.500000e-08
7.053052e-06 -5.147345e-06 -7.500000e-08
-7.043183e-06 5.190206e-06 -7.500000e-08
-2.000000e-07 -5.000000e-06 -7.500000e-08
5.190206e-06 7.043183e-06 -7.500000e-08
1.600589e-07 -8.868290e-06 -7.500000e-08
8.869469e-06 1.870898e-07 -7.500000e-08
-4.572859e-08 8.762618e-06 -7.500000e-08
-8.868290e-06 -1.600589e-07 -7.500000e-08
-9.290506e-06 -1.059104e-05 -7.500000e-08
1.059104e-05 -9.290506e-06 -7.500000e-08
9.298826e-06 1.070627e-05 -7.500000e-08
-1.070627e-05 9.298826e-06 -7.500000e-08
8.374425e-06 -1.498670e-06 -7.500000e-08
-6.000000e-07 -5.000000e-06 -7.500000e-08
-1.498670e-06 -8.374425e-06 -7.500000e-08
4.632682e-06 1.200797e-05 -7.500000e-08
-1.200797e-05 4.632682e-06 -7.500000e-08
-4.697357e-06 -1.200397e-05 -7.500000e-08
1.200397e-05 -4.697357e-06 -7.500000e-08
6.008711e-06 -3.713598e-06 -7.500000e-08
-3.713598e-06 -6.008711e-06 -7.500000e-08
-6.008711e-06 3.713598e-06 -7.500000e-08
3.713598e-06 6.008711e-06 -7.500000e-08
-1.058413e-05 -1.199875e-05 -7.500000e-08
-1.000000e-06 -5.000000e-06 -7.500000e-08
1.199875e-05 -1.058413e-05 -7.500000e-08
1.057119e-05 1.198673e-05 -7.500000e-08
-1.198673e-05 1.057119e-05 -7.500000e-08
7.410746e-06 2.867092e-06 -7.500000e-08
-7.431639e-06 -2.846912e-06 -7.500000e-08
-2.867092e-06 7.410746e-06 -7.500000e-08
2.867092e-06 -7.410746e-06 -7.500000e-08
-1.014900e-07 5.905787e-06 -7.500000e-08
-5.905787e-06 -1.014900e-07 -7.500000e-08
6.003016e-06 1.443110e-07 -7.500000e-08
-1.400000e-06 -5.000000e-06 -7.500000e-08
1.443110e-07 -6.003016e-06 -7.500000e-08
-7.610108e-06 9.244547e-06 -7.500000e-08
9.244547e-06 7.610108e-06 -7.500000e-08
-9.262324e-06 -7.695572e-06 -7.500000e-08
7.695572e-06 -9.262324e-06 -7.500000e-08
9.358773e-06 -3.114473e-06 -7.500000e-08
-3.114473e-06 -9.358773e-06 -7.500000e-08
-1.200787e-05 -8.537281e-06 -7.500000e-08
8.537281e-06 -1.200787e-05 -7.500000e-08
-8.527944e-06 1.204840e-05 -7.500000e-08
-1.800000e-06 -5.000000e-06 -7.500000e-08
1.204840e-05 8.527944e-06 -7.500000e-08
1.206237e-05 1.206237e-05 -7.500000e-08
-1.206237e-05 1.206237e-05 -7.500000e-08
-1.206237e-05 -1.206237e-05 -7.500000e-08
1.206237e-05 -1.206237e-05 -7.500000e-08
9.827783e-06 -4.418833e-06 -7.500000e-08
-4.418833e-06 -9.827783e-06 -7.500000e-08
-9.804003e-06 4.497827e-06 -7.500000e-08
4.497827e-06 9.804003e-06 -7.500000e-08
-1.085305e-05 -5.745452e-06 -7.500000e-08
-2.200000e-06 -5.000000e-06 -7.500000e-08
5.745452e-06 -1.085305e-05 -7.500000e-08
-5.654093e-06 1.082553e-05 -7.500000e-08
1.082553e-05 5.654093e-06 -7.500000e-08
9.477143e-06 1.993671e-06 -7.500000e-08
1.692159e-06 -9.866982e-06 -7.500000e-08
-9.477143e-06 -1.993671e-06 -7.500000e-08
-1.765133e-06 9.848807e-06 -7.500000e-08
-1.205854e-05 -5.835439e-06 -7.500000e-08
5.835439e-06 -1.205854e-05 -7.500000e-08
-5.873589e-06 1.206263e-05 -7.500000e-08
-2.600000e-06 -5.000000e-06 -7.500000e-08
1.206263e-05 5.873589e-06 -7.500000e-08
5.931651e-06 4.161745e-06 -7.500000e-08
-4.161745e-06 5.931651e-06 -7.500000e-08
4.161745e-06 -5.931651e-06 -7.500000e-08
-5.931651e-06 -4.161745e-06 -7.500000e-08
4.450880e-07 1.208468e-05 -7.500000e-08
-1.208468e-05 4.450880e-07 -7.500000e-08
-4.450880e-07 -1.208468e-05 -7.500000e-08
1.208468e-05 -4.450880e-07 -7.500000e-08
-7.008045e-06 6.455455e-06 -7.500000e-08
-3.000000e-06 -5.000000e-06 -7.500000e-08
6.455455e-06 7.008045e-06 -7.500000e-08
-6.757991e-06 -6.622697e-06 -7.500000e-08
6.622697e-06 -6.757991e-06 -7.500000e-08
-7.293023e-06 -1.069033e-05 -7.500000e-08
1.069033e-05 -7.293023e-06 -7.500000e-08
7.293023e-06 1.069033e-05 -7.500000e-08
-1.069033e-05 7.293023e-06 -7.500000e-08
-7.399769e-06 1.136656e-06 -7.500000e-08
1.136656e-06 7.399769e-06 -7.500000e-08
7.375970e-06 -1.128115e-06 -7.500000e-08
-3.400000e-06 -5.000000e-06 -7.500000e-08
-1.128115e-06 -7.375970e-06 -7.500000e-08
-8.911286e-06 -1.207724e-05 -7.500000e-08
1.207724e-05 -8.911286e-06 -7.500000e-08
8.911286e-06 1.207724e-05 -7.500000e-08
-1.207724e-05 8.911286e-06 -7.500000e-08
-9.966485e-06 -9.115516e-07 -7.500000e-08
9.935428e-06 8.112344e-07 -7.500000e-08
-1.055187e-05 -1.109579e-05 -7.500000e-08
1.109579e-05 -1.055187e-05 -7.500000e-08
1.062316e-05 1.114835e-05 -7.500000e-08
-1.300000e-05 -1.300000e-05 7.500000e-08
-3.800000e-06 -5.000000e-06 -7.500000e-08
-1.114835e-05 1.062316e-05 -7.500000e-08
-9.428710e-06 3.220594e-06 -7.500000e-08
3.220594e-06 9.428710e-06 -7.500000e-08
7.343129e-06 -6.166224e-08 -7.500000e-08
-6.166224e-08 -7.343129e-06 -7.500000e-08
-7.396512e-06 -8.964264e-09 -7.500000e-08
6.166224e-08 7.343129e-06 -7.500000e-08
-5.105946e-07 9.625080e-06 -7.500000e-08
4.983158e-07 -9.681326e-06 -7.500000e-08
-4.467327e-06 1.214610e-05 -7.500000e-08
-4.200000e-06 -5.000000e-06 -7.500000e-08
1.213311e-05 4.398210e-06 -7.500000e-08
-1.214610e-05 -4.467327e-06 -7.500000e-08
4.398210e-06 -1.213311e-05 -7.500000e-08
-9.474812e-06 -4.988317e-06 -7.500000e-08
4.988317e-06 -9.474812e-06 -7.500000e-08
-4.994709e-06 9.438106e-06 -7.500000e-08
9.438106e-06 4.994709e-06 -7.500000e-08
-1.848521e-06 5.881793e-06 -7.500000e-08
-5.882994e-06 -1.848666e-06 -7.500000e-08
1.850362e-06 -5.876412e-06 -7.500000e-08
-4.600000e-06 -5.000000e-06 -7.500000e-08
5.881793e-06 1.848521e-06 -7.500000e-08
-8.141708e-06 7.351140e-06 -7.500000e-08
7.351140e-06 8.141708e-06 -7.500000e-08
-6.866998e-06 -8.066115e-06 -7.500000e-08
8.066115e-06 -6.866998e-06 -7.500000e-08
-7.878460e-06 -6.629280e-06 -7.500000e-08
6.629280e-06 -7.878460e-06 -7.500000e-08
-7.451150e-06 8.190775e-06 -7.500000e-08
8.190775e-06 7.451150e-06 -7.500000e-08
-6.616824e-06 7.884148e-06 -7.500000e-08
1.260000e-05 1.300000e-05 -7.500000e-08
7.884148e-06 6.616824e-06 -7.500000e-08
-8.172429e-06 -7.493851e-06 -7.500000e-08
7.493851e-06 -8.172429e-06 -7.500000e-08
8.278629e-06 -2.371785e-06 -7.500000e-08
-2.371785e-06 -8.278629e-06 -7.500000e-08
-6.390270e-06 -1.214474e-05 -7.500000e-08
1.214474e-05 -6.390270e-06 -7.500000e-08
6.390270e-06 1.214474e-05 -7.500000e-08
-1.214474e-05 6.390270e-06 -7.500000e-08
-6.264721e-06 -9.396612e-06 -7.500000e-08
1.220000e-05 1.300000e-05 -7.500000e-08
9.396612e-06 -6.264721e-06 -7.500000e-08
6.312794e-06 9.390975e-06 -7.500000e-08
-9.390975e-06 6.312794e-06 -7.500000e-08
-9.041249e-06 7.856113e-06 -7.500000e-08
7.856113e-06 9.041249e-06 -7.500000e-08
-7.844520e-06 -9.037562e-06 -7.500000e-08
9.037562e-06 -7.844520e-06 -7.500000e-08
-7.219195e-06 2.824901e-06 -7.500000e-08
2.824901e-06 7.219195e-06 -7.500000e-08
7.196831e-06 -2.838829e-06 -7.500000e-08
1.180000e-05 1.300000e-05 -7.500000e-08
-2.838829e-06 -7.196831e-06 -7.500000e-08
2.077047e-06 -8.820069e-06 -7.500000e-08
1.227606e-06 -8.241571e-06 -7.500000e-08
8.316162e-06 1.287827e-06 -7.500000e-08
-1.996938e-06 8.788023e-06 -7.500000e-08
-1.189777e-06 8.234729e-06 -7.500000e-08
-8.316162e-06 -1.287827e-06 -7.500000e-08
-6.834805e-06 1.215994e-05 -7.500000e-08
1.215994e-05 6.834805e-06 -7.500000e-08
-1.216450e-05 -6.833839e-06 -7.500000e-08
1.140000e-05 1.300000e-05 -7.500000e-08
6.833839e-06 -1.216450e-05 -7.500000e-08
-1.081054e-05 -6.990566e-06 -7.500000e-08
6.990566e-06 -1.081054e-05 -7.500000e-08
-7.104525e-06 1.079251e-05 -7.500000e-08
1.079251e-05 7.104525e-06 -7.500000e-08
1.109408e-05 1.008334e-05 -7.500000e-08
-1.008334e-05 1.109408e-05 -7.500000e-08
-1.108190e-05 -1.006220e-05 -7.500000e-08
1.006220e-05 -1.108190e-05 -7.500000e-08
-5.856437e-06 8.904998e-07 -7.500000e-08
1.100000e-05 1.300000e-05 -7.500000e-08
8.904998e-07 5.856437e-06 -7.500000e-08
5.871135e-06 -8.882570e-07 -7.500000e-08
-8.902510e-07 -5.917786e-06 -7.500000e-08
-8.231975e-06 2.356742e-06 -7.500000e-08
2.356742e-06 8.231975e-06 -7.500000e-08
2.181911e-06 9.890732e-06 -7.500000e-08
-9.890732e-06 2.181911e-06 -7.500000e-08
2.708480e-06 1.210659e-05 -7.500000e-08
-1.210659e-05 2.708480e-06 -7.500000e-08
-2.703870e-06 -1.226032e-05 -7.500000e-08
1.060000e-05 1.300000e-05 -7.500000e-08
1.226032e-05 -2.703870e-06 -7.500000e-08
1.597472e-06 -7.242134e-06 -7.500000e-08
-1.580959e-06 7.247173e-06 -7.500000e-08
7.216359e-06 1.605569e-06 -7.500000e-08
-7.216359e-06 -1.605569e-06 -7.500000e-08
-6.336430e-06 -1.110612e-05 -7.500000e-08
1.110612e-05 -6.336430e-06 -7.500000e-08
6.263803e-06 1.117203e-05 -7.500000e-08
-1.117203e-05 6.263803e-06 -7.500000e-08
-5.771463e-06 -5.486802e-06 -7.500000e-08
1.020000e-05 1.300000e-05 -7.500000e-08
5.486802e-06 -5.771463e-06 -7.500000e-08
-5.477942e-06 5.770758e-06 -7.500000e-08
5.770758e-06 5.477942e-06 -7.500000e-08
-5.838719e-06 6.631022e-06 -7.500000e-08
6.631022e-06 5.838719e-06 -7.500000e-08
-1.336443e-06 -9.141809e-06 -7.500000e-08
9.141809e-06 -1.336443e-06 -7.500000e-08
-2.485290e-06 -9.902949e-06 -7.500000e-08
9.902949e-06 -2.485290e-06 -7.500000e-08
-6.560312e-06 -5.806401e-06 -7.500000e-08
1.300000e-05 -1.300000e-05 7.500000e-08
9.800000e-06 1.300000e-05 -7.500000e-08
5.806401e-06 -6.560312e-06 -7.500000e-08
-1.110034e-05 1.215754e-05 -7.500000e-08
-1.215097e-05 -1.109643e-05 -7.500000e-08
1.109643e-05 -1.215097e-05 -7.500000e-08
1.215754e-05 1.110034e-05 -7.500000e-08
-6.793937e-07 -1.048867e-05 -7.500000e-08
1.052312e-05 -6.937968e-07 -7.500000e-08
6.549492e-07 1.044024e-05 -7.500000e-08
-1.046671e-05 6.718088e-07 -7.500000e-08
-6.113863e-06 9.195663e-06 -7.500000e-08
9.400000e-06 1.300000e-05 -7.500000e-08
9.195663e-06 6.113863e-06 -7.500000e-08
-9.200982e-06 -6.089106e-06 -7.500000e-08
6.089106e-06 -9.200982e-06 -7.500000e-08
-9.603905e-06 1.220549e-05 -7.500000e-08
[...]
POINT_DATA 9702
VECTORS 10.000GHz_fone_imag double
-1.547424e-01 -1.426960e-01 -4.007432e-01
6.492193e-04 -6.485025e-04 8.168694e-03
-6.268056e-05 -7.687943e-02 -1.936281e-01
9.826311e-03 -1.382807e-02 7.914556e-04
1.402493e-02 9.849741e-03 7.967348e-04
-9.836698e-03 1.410081e-02 7.573613e-04
-4.288569e-03 -2.133945e-02 4.514155e-03
2.129979e-02 -4.264545e-03 4.578085e-03
4.239394e-03 2.126370e-02 4.558114e-03
-2.128675e-02 4.295445e-03 4.553619e-03
-2.613004e-02 -5.010869e-02 -9.251949e-03
4.995529e-02 -2.610585e-02 -9.054129e-03
-4.973860e-02 2.644750e-02 -8.829207e-03
-2.266177e-04 -7.763813e-02 -1.940133e-01
2.676061e-02 4.974626e-02 -8.973666e-03
3.610123e-04 -4.125629e-02 -3.605782e-03
4.123773e-02 5.491180e-04 -3.478087e-03
-5.984422e-05 4.211032e-02 -4.034572e-03
-4.123127e-02 -4.407688e-04 -3.520510e-03
-9.013381e-03 -1.384551e-02 1.039569e-03
1.388807e-02 -8.954696e-03 1.028275e-03
8.578234e-03 1.394745e-02 1.206764e-03
-1.396753e-02 8.568954e-03 1.180766e-03
4.473142e-02 -3.748512e-03 -4.725621e-03
7.643160e-05 -7.748552e-02 -1.945655e-01
-3.744708e-03 -4.469331e-02 -4.729923e-03
2.940195e-03 3.169174e-02 6.054341e-03
-3.168426e-02 2.968569e-03 6.152056e-03
-3.018815e-03 -3.156470e-02 5.984575e-03
3.154767e-02 -3.022496e-03 6.002793e-03
9.558143e-02 -1.513004e-02 -3.006960e-02
-1.580012e-02 -9.601795e-02 -3.068549e-02
-9.577986e-02 1.546350e-02 -3.022824e-02
1.528411e-02 9.581342e-02 -3.023860e-02
-4.669426e-03 -1.241561e-02 3.541610e-03
-2.863824e-04 -7.790266e-02 -1.955623e-01
1.245864e-02 -4.707852e-03 3.551882e-03
4.679287e-03 1.246457e-02 3.452334e-03
-1.247139e-02 4.755325e-03 3.488526e-03
5.500880e-02 9.153692e-03 -8.835557e-03
-5.474878e-02 -8.886420e-03 -8.668753e-03
-9.165951e-03 5.516056e-02 -9.049511e-03
9.151091e-03 -5.484936e-02 -8.962967e-03
1.262627e-04 9.219145e-02 -3.148753e-02
-9.219619e-02 -4.435703e-05 -3.165101e-02
8.858201e-02 3.173550e-04 -2.741890e-02
-5.286789e-04 -7.874902e-02 -1.974943e-01
4.866486e-04 -8.801483e-02 -2.684269e-02
-1.342909e-02 1.977500e-02 -5.487717e-04
1.978775e-02 1.337624e-02 -5.788379e-04
-1.935519e-02 -1.336047e-02 -5.281846e-04
1.335863e-02 -1.938439e-02 -5.810085e-04
3.575237e-02 -6.625677e-03 -2.314756e-03
-6.673732e-03 -3.564760e-02 -2.212697e-03
-1.975726e-02 -4.230847e-03 4.513340e-03
4.242319e-03 -1.980013e-02 4.460886e-03
-4.061982e-03 1.999506e-02 4.617624e-03
-7.064236e-04 -8.030944e-02 -2.002789e-01
2.008976e-02 4.043187e-03 4.511911e-03
6.198845e-03 6.179143e-03 3.708897e-03
-6.137244e-03 6.174382e-03 3.712992e-03
-6.165511e-03 -6.232284e-03 3.849241e-03
6.223585e-03 -6.155778e-03 3.787179e-03
3.047241e-02 -8.230015e-03 -8.184025e-04
-8.208956e-03 -3.046894e-02 -7.373532e-04
-3.023107e-02 8.410390e-03 -6.466141e-04
8.454127e-03 3.036912e-02 -6.877511e-04
-2.529692e-02 -6.833465e-03 1.108224e-03
-5.416141e-04 -8.101366e-02 -2.034332e-01
6.840087e-03 -2.530892e-02 1.102339e-03
-6.846617e-03 2.556195e-02 1.060561e-03
2.551803e-02 6.863187e-03 1.030564e-03
3.676009e-02 3.938811e-03 -1.755249e-03
3.069381e-03 -3.532727e-02 -8.770641e-04
-3.666874e-02 -3.955823e-03 -1.768959e-03
-3.209008e-03 3.527733e-02 -9.250637e-04
-2.866350e-02 -3.384885e-03 6.165293e-03
3.397542e-03 -2.869665e-02 6.168183e-03
-3.361681e-03 2.862732e-02 6.223202e-03
-1.323042e-03 -8.176629e-02 -2.074663e-01
2.865784e-02 3.333754e-03 6.174710e-03
1.019071e-01 2.249109e-02 -3.457909e-02
-2.206635e-02 1.017105e-01 -3.342514e-02
2.245633e-02 -1.007923e-01 -3.312403e-02
-1.010911e-01 -2.215159e-02 -3.306205e-02
3.616875e-04 3.803982e-02 7.924125e-03
-3.820086e-02 4.032701e-04 8.032753e-03
-3.689538e-04 -3.819383e-02 8.040391e-03
3.819841e-02 -4.172547e-04 8.058190e-03
-3.383486e-02 2.910020e-02 -5.368128e-03
-1.838407e-03 -8.487871e-02 -2.138638e-01
2.900121e-02 3.351036e-02 -5.206094e-03
-3.299035e-02 -3.177154e-02 -5.693380e-03
3.176845e-02 -3.286693e-02 -5.983568e-03
-8.183810e-03 -2.047149e-02 7.608985e-04
2.048814e-02 -8.202853e-03 7.549907e-04
8.170298e-03 2.047353e-02 7.915759e-04
-2.048784e-02 8.135433e-03 8.073709e-04
-5.594906e-02 2.974166e-03 -9.194443e-03
2.958373e-03 5.593729e-02 -9.281964e-03
5.642191e-02 -2.981135e-03 -9.367557e-03
-2.378815e-03 -8.780394e-02 -2.221957e-01
-3.015689e-03 -5.624937e-02 -9.159282e-03
-4.041735e-03 -1.882168e-02 4.769608e-03
1.882608e-02 -4.029914e-03 4.684399e-03
4.023603e-03 1.878507e-02 4.717623e-03
-1.879354e-02 4.011096e-03 4.781875e-03
-3.537269e-02 -1.601167e-03 -5.979936e-04
3.555012e-02 1.455407e-03 -6.134236e-04
-7.969565e-03 -1.041888e-02 1.801125e-03
1.040166e-02 -7.969621e-03 1.827405e-03
7.814480e-03 1.027523e-02 1.939969e-03
6.273391e-04 6.896366e-04 8.183956e-03
-3.127898e-03 -9.245901e-02 -2.342714e-01
-1.023897e-02 7.812956e-03 1.961374e-03
-3.520561e-02 6.744900e-03 -2.151440e-03
6.821751e-03 3.526653e-02 -2.255136e-03
5.690632e-02 -1.830984e-05 -8.778471e-03
-1.267167e-05 -5.697434e-02 -8.994467e-03
-5.596305e-02 -2.359324e-06 -9.054259e-03
3.190982e-05 5.700757e-02 -9.138202e-03
-1.011108e-03 3.697069e-02 -1.582263e-03
9.485295e-04 -3.675357e-02 -1.247319e-03
-2.490093e-03 3.321030e-02 7.351282e-03
-5.822999e-03 -9.853168e-02 -2.534169e-01
3.314206e-02 2.672388e-03 7.252692e-03
-3.320040e-02 -2.482787e-03 7.357159e-03
2.652017e-03 -3.320966e-02 7.139310e-03
-2.999817e-02 -1.031227e-02 -1.171856e-03
1.034276e-02 -2.996239e-02 -1.246522e-03
-1.046796e-02 3.009259e-02 -1.366443e-03
3.003915e-02 1.040978e-02 -1.344644e-03
-3.964967e-03 9.487940e-02 -3.224433e-02
-9.486640e-02 -3.719823e-03 -3.251539e-02
3.663751e-03 -9.513004e-02 -3.266624e-02
-1.368285e-02 -1.118472e-01 -2.908197e-01
9.511833e-02 4.060464e-03 -3.209103e-02
-2.263554e-02 1.894107e-02 -1.947951e-03
1.889207e-02 2.267984e-02 -2.069930e-03
-1.936113e-02 -2.591800e-02 -2.454978e-03
2.583943e-02 -1.943243e-02 -2.311725e-03
-2.812731e-02 -2.077025e-02 -2.950159e-03
2.069380e-02 -2.818661e-02 -2.976075e-03
-1.855240e-02 2.198591e-02 -1.871596e-03
2.194199e-02 1.846850e-02 -1.879252e-03
-2.070203e-02 2.815821e-02 -2.925448e-03
8.148339e-04 3.057427e-03 1.106819e-02
2.825851e-02 2.082390e-02 -2.890215e-03
-2.173032e-02 -1.871647e-02 -1.917450e-03
1.865193e-02 -2.178138e-02 -1.880856e-03
4.477225e-02 -6.227619e-03 -4.861196e-03
-6.208914e-03 -4.478755e-02 -4.873780e-03
-3.340747e-03 -2.776290e-02 6.401018e-03
2.761050e-02 -3.385869e-03 6.278575e-03
3.361675e-03 2.762620e-02 6.319139e-03
-2.779931e-02 3.296106e-03 6.458637e-03
-1.228504e-02 -2.519422e-02 -8.786946e-04
6.494096e-04 4.935501e-03 1.402238e-02
2.517276e-02 -1.223764e-02 -8.954765e-04
1.235666e-02 2.500614e-02 -9.699676e-04
-2.494332e-02 1.235961e-02 -9.752855e-04
-1.886337e-02 1.430436e-02 -6.579170e-04
1.427140e-02 1.892815e-02 -7.637111e-04
-1.429820e-02 -1.893519e-02 -6.427979e-04
1.895129e-02 -1.432292e-02 -5.877014e-04
-5.855162e-02 9.242041e-03 -1.057118e-02
9.238040e-03 5.854243e-02 -1.055538e-02
5.872846e-02 -9.125128e-03 -1.056463e-02
6.541243e-04 6.432201e-03 1.672585e-02
-9.399318e-03 -5.891501e-02 -1.058529e-02
4.807125e-03 -4.064982e-02 -3.401436e-03
2.981247e-03 -4.611956e-02 -5.032020e-03
4.535201e-02 3.141386e-03 -5.088303e-03
-4.681059e-03 4.098415e-02 -3.380262e-03
-2.864339e-03 4.618183e-02 -5.151573e-03
-4.519634e-02 -3.261973e-03 -5.007513e-03
-3.514367e-03 2.643824e-02 6.498394e-03
2.638274e-02 3.452954e-03 6.380132e-03
-2.645570e-02 -3.407282e-03 6.431575e-03
5.889625e-04 7.743424e-03 1.930987e-02
3.402927e-03 -2.647829e-02 6.524543e-03
-2.155930e-02 -7.635611e-03 9.473530e-04
7.636295e-03 -2.155301e-02 9.857288e-04
-7.749835e-03 2.118140e-02 9.480347e-04
2.123426e-02 7.760659e-03 9.038922e-04
1.202855e-02 7.647533e-03 1.680386e-03
-7.641623e-03 1.199070e-02 1.694379e-03
-1.202904e-02 -7.659083e-03 1.713951e-03
7.629482e-03 -1.203905e-02 1.687208e-03
-9.415969e-02 1.944062e-03 -3.362739e-02
5.818942e-04 8.961782e-03 2.174208e-02
1.900336e-03 9.420916e-02 -3.368421e-02
9.357434e-02 -1.562048e-03 -3.294002e-02
-1.785288e-03 -9.199850e-02 -3.028216e-02
-4.548246e-02 6.273975e-03 -5.013254e-03
6.305351e-03 4.543869e-02 -5.020377e-03
3.927419e-03 3.469586e-02 -6.813083e-04
-3.467665e-02 3.908472e-03 -7.073513e-04
1.614922e-03 3.647747e-02 7.405911e-03
-3.632526e-02 1.628077e-03 7.643320e-03
-1.314829e-03 -3.765705e-02 9.888465e-03
5.144280e-04 1.006380e-02 2.410322e-02
3.758179e-02 -1.496296e-03 9.828251e-03
4.347500e-03 -5.838232e-02 -1.001309e-02
-4.268792e-03 5.835009e-02 -9.996206e-03
5.864994e-02 4.454477e-03 -1.045560e-02
-5.873413e-02 -4.419755e-03 -1.035935e-02
-6.412539e-03 -2.381816e-02 1.681787e-03
2.385000e-02 -6.347952e-03 1.713047e-03
6.176217e-03 2.422791e-02 1.761978e-03
-2.419914e-02 6.087680e-03 1.833787e-03
-7.549233e-02 -6.311425e-02 -2.592381e-02
5.359491e-04 1.112752e-02 2.634922e-02
6.180624e-02 -7.494135e-02 -2.456818e-02
-6.350719e-02 7.643622e-02 -2.448127e-02
7.509801e-02 6.235786e-02 -2.469742e-02
-3.521117e-02 4.618256e-02 -9.751274e-03
4.628823e-02 3.564624e-02 -9.561117e-03
-2.807746e-03 -3.915832e-02 -2.464994e-03
3.916539e-02 -2.802820e-03 -2.437988e-03
-4.423319e-03 -3.422225e-02 -6.083375e-04
3.430642e-02 -4.476201e-03 -5.278820e-04
-4.771767e-02 -3.605095e-02 -9.826014e-03
-6.493180e-04 6.489805e-04 8.168062e-03
5.559561e-04 1.226595e-02 2.864625e-02
3.642117e-02 -4.771528e-02 -9.406162e-03
-4.457972e-03 1.097033e-02 3.959247e-03
-1.095293e-02 -4.463655e-03 4.000839e-03
4.413830e-03 -1.097797e-02 3.995186e-03
1.099223e-02 4.403028e-03 3.936843e-03
-1.028477e-03 -3.423567e-02 9.517632e-06
3.419365e-02 -1.028792e-03 1.387754e-04
1.000601e-03 3.433010e-02 -6.498143e-05
-3.423769e-02 9.919594e-04 -1.091648e-05
-1.304307e-02 2.627808e-02 -1.271617e-03
5.371525e-04 1.333146e-02 3.091868e-02
2.630227e-02 1.310380e-02 -1.355433e-03
-2.639495e-02 -1.297698e-02 -1.365987e-03
1.295265e-02 -2.641088e-02 -1.351592e-03
-3.707192e-03 1.708829e-02 4.994839e-03
-1.703534e-02 -3.725531e-03 5.004153e-03
3.702272e-03 -1.705076e-02 5.035040e-03
1.696352e-02 3.707233e-03 4.930534e-03
-7.291249e-04 -3.966833e-02 1.006680e-02
3.970997e-02 -6.358142e-04 1.007095e-02
6.570723e-04 3.978009e-02 1.038568e-02
5.036392e-04 1.435573e-02 3.307751e-02
-3.977402e-02 6.502735e-04 1.022268e-02
4.189528e-02 -1.272365e-02 -4.640805e-03
-1.255182e-02 -4.185996e-02 -4.805921e-03
-4.190153e-02 1.259834e-02 -4.786814e-03
1.259378e-02 4.188626e-02 -4.885891e-03
-2.846579e-02 1.570372e-02 -2.136208e-03
1.574056e-02 2.853856e-02 -2.127463e-03
-1.632454e-02 -2.715098e-02 -1.865746e-03
2.718772e-02 -1.630800e-02 -1.858279e-03
-6.698449e-03 1.738392e-02 1.922857e-03
5.161886e-04 1.528417e-02 3.521692e-02
1.736640e-02 6.665473e-03 1.956301e-03
-1.737819e-02 -6.676923e-03 1.958260e-03
6.690733e-03 -1.738239e-02 1.963960e-03
-3.752542e-03 3.171508e-02 1.086048e-03
-3.179630e-02 -3.718322e-03 1.127709e-03
3.747731e-03 -3.180574e-02 1.087468e-03
3.173765e-02 3.740749e-03 1.093031e-03
-1.989020e-03 -3.346790e-02 1.455080e-03
3.348646e-02 -2.043990e-03 1.469799e-03
1.979105e-03 3.353628e-02 1.572509e-03
4.336713e-04 1.627349e-02 3.733467e-02
-3.353603e-02 1.939972e-03 1.567745e-03
1.216108e-02 1.182428e-02 6.372404e-04
-1.183125e-02 1.213023e-02 6.065676e-04
-1.221170e-02 -1.184775e-02 4.982578e-04
1.186462e-02 -1.218161e-02 5.202850e-04
4.163755e-03 3.128917e-02 9.125259e-04
-3.126607e-02 4.171934e-03 9.440872e-04
-4.166639e-03 -3.126957e-02 9.323351e-04
3.132711e-02 -4.183222e-03 9.486678e-04
-4.803818e-02 -7.670392e-04 -5.882466e-03
5.025769e-04 1.723544e-02 3.933614e-02
-7.603028e-04 4.801371e-02 -5.900631e-03
4.832635e-02 8.170408e-04 -6.032131e-03
8.194496e-04 -4.846873e-02 -6.033138e-03
4.201412e-02 4.282861e-03 -3.748550e-03
-4.211373e-02 -4.350170e-03 -3.830149e-03
-3.407529e-02 1.251394e-02 -2.628419e-03
1.244294e-02 3.402759e-02 -2.657294e-03
3.423176e-02 -1.262356e-02 -2.479969e-03
-1.250255e-02 -3.414965e-02 -2.571090e-03
-1.619842e-02 -3.272234e-02 -3.099667e-03
5.060394e-04 1.814046e-02 4.145700e-02
3.280796e-02 -1.613189e-02 -2.940344e-03
-2.950128e-02 -3.747417e-02 -5.889523e-03
3.771949e-02 -2.957529e-02 -6.090197e-03
9.531712e-04 -6.819329e-02 -1.533440e-02
6.822886e-02 9.945696e-04 -1.538204e-02
-7.809594e-04 7.080597e-02 -1.614973e-02
-6.854222e-02 -6.907869e-04 -1.486799e-02
-2.139318e-03 -3.515452e-02 8.940903e-03
3.507125e-02 -2.066742e-03 8.761786e-03
2.166583e-03 3.516890e-02 8.605388e-03
5.079312e-04 1.910644e-02 4.349664e-02
-3.519000e-02 2.131501e-03 8.844733e-03
-2.323981e-02 -8.312457e-03 4.856734e-04
8.335741e-03 -2.332179e-02 5.310399e-04
-8.283466e-03 2.338650e-02 5.165351e-04
2.338337e-02 8.299182e-03 4.571315e-04
-2.614833e-03 3.296024e-02 1.112108e-03
2.665159e-03 -3.296042e-02 1.099019e-03
-3.299180e-02 -2.661077e-03 1.070609e-03
3.296182e-02 2.698000e-03 1.038018e-03
3.029883e-03 3.647352e-02 -1.589345e-03
4.130829e-04 2.021209e-02 4.552044e-02
-3.651443e-02 3.074038e-03 -1.482429e-03
-7.753943e-03 4.491220e-02 -5.069410e-03
4.497727e-02 7.706976e-03 -5.025492e-03
7.796610e-03 -4.514427e-02 -5.001129e-03
-4.420730e-02 -7.555153e-03 -5.211148e-03
3.673964e-02 3.394855e-04 -1.359811e-03
-3.705458e-02 -3.221214e-04 -1.779079e-03
4.412186e-03 9.976394e-03 3.941946e-03
-9.986359e-03 4.424619e-03 3.946262e-03
-4.398382e-03 -1.003973e-02 4.016701e-03
4.525531e-04 2.104990e-02 4.738752e-02
1.003434e-02 -4.387204e-03 4.022602e-03
-1.124727e-02 -2.173575e-02 -1.727969e-04
2.166634e-02 -1.119485e-02 -1.327478e-04
1.111500e-02 2.135877e-02 -1.701664e-04
-2.130269e-02 1.113417e-02 -2.064345e-04
-1.464235e-02 -1.478099e-02 -2.939659e-04
1.476735e-02 -1.466314e-02 -2.775468e-04
-1.483432e-02 1.467629e-02 -3.092965e-04
1.468422e-02 1.479613e-02 -3.148122e-04
-3.847271e-02 -1.098884e-03 9.398180e-03
1.496390e-01 1.409814e-01 -4.111994e-01
4.045354e-04 2.187743e-02 4.920789e-02
-1.164071e-03 3.818955e-02 8.825197e-03
1.162370e-03 -3.826754e-02 8.788153e-03
3.837677e-02 1.186856e-03 9.135304e-03
1.052941e-01 -4.852000e-03 -4.337904e-02
-4.765061e-03 -1.050968e-01 -4.333692e-02
-1.000325e-01 4.681743e-03 -3.680568e-02
4.988141e-03 1.003210e-01 -3.672788e-02
-1.051956e-01 -5.616729e-03 -4.147080e-02
1.048092e-01 5.437861e-03 -4.056774e-02
-5.625356e-03 1.054055e-01 -4.110426e-02
4.019059e-04 2.259952e-02 5.092016e-02
5.557163e-03 -1.066654e-01 -4.252569e-02
-2.658741e-02 1.832320e-02 -2.241917e-03
1.828976e-02 2.663850e-02 -2.273845e-03
-6.036208e-03 -2.678705e-02 1.472079e-03
2.676441e-02 -6.030830e-03 1.471053e-03
6.016705e-03 2.677723e-02 1.547264e-03
-2.677884e-02 6.024095e-03 1.469344e-03
1.002000e-02 1.629064e-02 6.088931e-04
-1.632127e-02 1.000759e-02 5.891817e-04
-1.037263e-02 -1.632127e-02 4.552223e-04
4.256542e-04 2.328294e-02 5.257460e-02
1.630600e-02 -1.037066e-02 4.522812e-04
-3.687584e-02 -8.830886e-03 -2.752346e-03
8.945669e-03 -3.754904e-02 -2.911054e-03
-8.830097e-03 3.712469e-02 -2.776398e-03
3.708581e-02 8.748463e-03 -2.717239e-03
-6.913321e-02 6.007665e-03 -1.436007e-02
5.877795e-03 6.896961e-02 -1.446541e-02
6.796153e-02 -6.098527e-03 -1.397753e-02
-6.022272e-03 -6.803799e-02 -1.413767e-02
-5.431038e-03 2.873480e-02 1.257829e-03
3.883556e-04 2.418155e-02 5.423913e-02
2.872487e-02 5.453435e-03 1.237531e-03
-2.870582e-02 -5.413454e-03 1.370619e-03
5.399472e-03 -2.873378e-02 1.279506e-03
-1.982216e-02 -2.140962e-02 -2.061092e-03
2.144890e-02 -1.985344e-02 -1.903933e-03
-4.792310e-02 3.742435e-03 -5.764318e-03
3.782895e-03 4.793086e-02 -5.747513e-03
-3.421282e-02 -5.805158e-03 -1.301486e-03
-5.698119e-03 3.406254e-02 -1.065839e-03
5.679437e-03 -3.417134e-02 -1.184097e-03
2.549574e-04 2.483189e-02 5.565739e-02
3.426910e-02 5.802553e-03 -1.317797e-03
-2.761443e-02 3.127041e-02 -4.550276e-03
3.130250e-02 2.755797e-02 -4.613809e-03
-2.954215e-03 -2.582307e-02 7.528782e-03
2.583039e-02 -2.868500e-03 7.614081e-03
2.933419e-03 2.579253e-02 7.532246e-03
-2.586149e-02 2.903864e-03 7.529571e-03
-1.633746e-03 -4.152848e-02 -3.281097e-03
4.209532e-02 -1.754636e-03 -3.790396e-03
-4.092533e-02 -4.209336e-04 1.211877e-02
2.791872e-04 2.519013e-02 5.689488e-02
-4.960268e-04 4.079337e-02 1.189053e-02
4.090682e-02 3.550676e-04 1.178799e-02
3.835648e-04 -4.090408e-02 1.179126e-02
-2.027943e-04 -3.433910e-02 1.746021e-03
3.435566e-02 -1.694724e-04 1.798316e-03
1.618823e-04 3.423660e-02 1.329472e-03
-3.421285e-02 1.347938e-04 1.351186e-03
-3.440364e-03 -1.644307e-02 5.272998e-03
1.640627e-02 -3.473213e-03 5.350910e-03
3.593863e-03 1.635250e-02 5.258372e-03
2.912058e-04 2.598534e-02 5.818701e-02
-1.636856e-02 3.576701e-03 5.262511e-03
-1.819534e-02 -1.099162e-02 1.445648e-04
1.098055e-02 -1.815658e-02 1.692408e-04
-1.102933e-02 1.817378e-02 1.710417e-04
1.813481e-02 1.101871e-02 1.948265e-04
-1.522433e-03 3.745746e-02 9.225804e-03
-3.760828e-02 -1.425600e-03 9.731042e-03
1.513037e-03 -3.787850e-02 9.830725e-03
3.786823e-02 1.455073e-03 9.844707e-03
-5.820180e-02 -2.182755e-02 -1.153019e-02
2.461058e-04 2.652251e-02 5.923303e-02
2.195163e-02 -5.806076e-02 -1.122665e-02
-2.216170e-02 5.697900e-02 -1.079770e-02
5.727727e-02 2.216297e-02 -1.095576e-02
-2.588663e-03 -3.299370e-02 3.171686e-03
3.297929e-02 -2.573451e-03 3.190710e-03
2.689958e-03 3.278133e-02 3.048022e-03
-3.279755e-02 2.702896e-03 3.014046e-03
-4.028047e-02 7.443336e-03 -3.734850e-03
7.447867e-03 4.026049e-02 -3.556755e-03
1.394045e-03 4.118000e-02 -3.364859e-03
1.926803e-04 2.685891e-02 6.023997e-02
-4.165056e-02 1.438708e-03 -3.580489e-03
-6.404520e-03 -1.610046e-02 2.202293e-03
1.612226e-02 -6.372749e-03 2.170163e-03
6.428404e-03 1.611128e-02 2.038821e-03
-1.609351e-02 6.292156e-03 2.111385e-03
-4.869257e-02 -2.713168e-02 -8.503636e-03
2.714474e-02 -4.836414e-02 -8.468683e-03
-2.623683e-03 3.204934e-02 8.022498e-03
3.217812e-02 2.549129e-03 8.207311e-03
-3.269549e-02 -2.453487e-03 8.768157e-03
2.270577e-04 2.725785e-02 6.104532e-02
2.409361e-03 -3.270750e-02 8.788405e-03
-2.661565e-02 4.802999e-02 -8.397597e-03
4.815753e-02 2.683956e-02 -8.094331e-03
-3.336334e-02 1.612653e-02 -3.090526e-03
1.616332e-02 3.327137e-02 -3.176481e-03
-8.333968e-04 3.403619e-02 1.395353e-03
-3.407622e-02 -8.201251e-04 1.369540e-03
8.184224e-04 -3.400874e-02 1.427683e-03
3.406321e-02 8.095823e-04 1.375678e-03
3.396330e-02 3.090853e-03 -4.658723e-04
1.507779e-01 -1.433985e-01 -4.098386e-01
1.138794e-04 2.769420e-02 6.179344e-02
-3.407390e-02 -2.974459e-03 -4.991452e-04
-4.557752e-03 3.610713e-02 -1.775002e-03
4.542754e-03 -3.605458e-02 -1.755957e-03
-6.425248e-03 -2.001215e-02 1.998266e-03
2.004207e-02 -6.433446e-03 1.962253e-03
6.259483e-03 2.008340e-02 2.087258e-03
-2.010021e-02 6.249522e-03 2.132434e-03
-1.419240e-02 4.276141e-02 -5.327521e-03
4.271291e-02 1.416252e-02 -5.167555e-03
-4.659403e-02 -1.447171e-02 -6.335937e-03
1.594312e-04 2.784084e-02 6.233663e-02
1.446550e-02 -4.675176e-02 -6.429919e-03
1.105567e-01 -7.781181e-03 -4.490250e-02
-7.873179e-03 -1.105324e-01 -4.602410e-02
-1.106990e-01 7.781499e-03 -4.548376e-02
8.073329e-03 1.099266e-01 -4.526998e-02
3.949976e-02 -9.028445e-03 -3.631582e-03
-9.100525e-03 -3.936775e-02 -3.717115e-03
2.482348e-03 3.254162e-02 9.440091e-03
-3.246805e-02 2.467184e-03 9.309672e-03
-2.446678e-03 -3.233803e-02 9.160967e-03
9.755079e-05 2.815603e-02 6.286022e-02
3.217469e-02 -2.458626e-03 8.925357e-03
4.776885e-03 3.273080e-02 -4.282083e-04
-3.272468e-02 4.789133e-03 -4.377214e-04
-9.898791e-03 -7.882464e-03 1.851884e-03
7.838541e-03 -9.872458e-03 1.906420e-03
9.954269e-03 7.816469e-03 1.894041e-03
-7.806555e-03 9.934791e-03 1.891553e-03
3.701791e-03 3.073500e-02 3.477787e-03
-3.069782e-02 3.704195e-03 3.509668e-03
-3.680011e-03 -3.091246e-02 3.551491e-03
-4.621198e-05 2.825507e-02 6.314659e-02
3.089930e-02 -3.649403e-03 3.588503e-03
5.368566e-03 -3.163373e-02 -2.288931e-04
3.159433e-02 5.385389e-03 -2.478215e-04
-3.166518e-02 -5.323558e-03 -2.031241e-04
-5.359019e-03 3.163264e-02 -2.598958e-04
-9.704604e-03 1.630237e-02 6.925190e-04
1.627219e-02 9.723725e-03 6.626336e-04
-1.636647e-02 -1.016874e-02 5.284683e-04
1.010245e-02 -1.630964e-02 6.278792e-04
6.891398e-02 -1.333142e-02 -1.439650e-02
2.303881e-05 2.835288e-02 6.319001e-02
-1.320191e-02 -6.882014e-02 -1.464916e-02